
.Version 9.7.2 of ABINIT 
.(MPI version, prepared for a x86_64_linux_intel2021.2 computer) 

.Copyright (C) 1998-2021 ABINIT group . 
 ABINIT comes with ABSOLUTELY NO WARRANTY.
 It is free software, and you are welcome to redistribute it
 under certain conditions (GNU General Public License,
 see ~abinit/COPYING or http://www.gnu.org/copyleft/gpl.txt).

 ABINIT is a project of the Universite Catholique de Louvain,
 Corning Inc. and other collaborators, see ~abinit/doc/developers/contributors.txt .
 Please read https://docs.abinit.org/theory/acknowledgments for suggested
 acknowledgments of the ABINIT effort.
 For more information, see https://www.abinit.org .

.Starting date : Sat  5 Mar 2022.
- ( at 00h19 )
  
- input  file    -> ./4H-2110_gw.abi
- output file    -> 4H-2110_gw.abo
- root for input  files -> 4H-2110_gw_i
- root for output files -> 4H-2110_gw_o
 
 
 DATASET    3 : space group Pb c m (# 57); Bravais oP (primitive ortho.)
================================================================================
 Values of the parameters that define the memory need for DATASET  3.
     intxc =       0    ionmov =       0      iscf =       7    lmnmax =       1
     lnmax =       1     mgfft =     576  mpssoang =       2    mqgrid =   27069
     natom =      40  nloc_mem =       1    nspden =       1   nspinor =       1
    nsppol =       1      nsym =       8    n1xccc =       0    ntypat =       2
    occopt =       1   xclevel =       2
-    mband =        1068        mffmem =           1         mkmem =           1
       mpw =       94557          nfft =     1679616          nkpt =          16
================================================================================
P This job should need less than                    2117.906 Mbytes of memory.
  Rough estimation (10% accuracy) of disk space for files :
_ WF disk file :  24655.001 Mbytes ; DEN or POT disk file :     12.816 Mbytes.
================================================================================
 
 
 DATASET    4 : space group Pb c m (# 57); Bravais oP (primitive ortho.)
================================================================================
 Values of the parameters that define the memory need for DATASET  4.
     intxc =       0    ionmov =       0      iscf =       7    lmnmax =       1
     lnmax =       1     mgfft =     576  mpssoang =       2    mqgrid =   27069
     natom =      40  nloc_mem =       1    nspden =       1   nspinor =       1
    nsppol =       1      nsym =       8    n1xccc =       0    ntypat =       2
    occopt =       1   xclevel =       2
-    mband =        1602        mffmem =           1         mkmem =           1
       mpw =       94557          nfft =     1679616          nkpt =          16
================================================================================
P This job should need less than                    2930.293 Mbytes of memory.
  Rough estimation (10% accuracy) of disk space for files :
_ WF disk file :  36982.501 Mbytes ; DEN or POT disk file :     12.816 Mbytes.
================================================================================
 
--------------------------------------------------------------------------------
------------- Echo of variables that govern the present computation ------------
--------------------------------------------------------------------------------
-
- outvars: echo of selected default values                                      
-   iomode0 =  0 , fftalg0 =512 , wfoptalg0 =  0
-
- outvars: echo of global parameters not present in the input file              
-  max_nthreads =    0
-
 -outvars: echo values of preprocessed input variables --------
            acell      7.9531598930E+00  8.2733465235E+00  8.5037675980E+01 Bohr
              amu      1.20110000E+01  1.00794000E+00
             bdgw4         66      69
          chkprim           0
           diemac      1.20000000E+01
             ecut      5.00000000E+01 Hartree
          ecuteps3     5.00000000E+00 Hartree
          ecuteps4     0.00000000E+00 Hartree
         ecutsigx3     0.00000000E+00 Hartree
         ecutsigx4     2.50000000E+01 Hartree
          ecutwfn      5.00000000E+01 Hartree
-          fftalg         512
           getscr3          0
           getscr4          3
           getwfk           2
      gw_icutcoul           2
           istwfk        1    0    0    1    0    0    0    0    0    0
                         0    0    1    0    0    1
              ixc     -208012
           jdtset        3    4
              kpt      0.00000000E+00  0.00000000E+00  0.00000000E+00
                       1.66666667E-01  0.00000000E+00  0.00000000E+00
                       3.33333333E-01  0.00000000E+00  0.00000000E+00
                       5.00000000E-01  0.00000000E+00  0.00000000E+00
                       0.00000000E+00  1.66666667E-01  0.00000000E+00
                       1.66666667E-01  1.66666667E-01  0.00000000E+00
                       3.33333333E-01  1.66666667E-01  0.00000000E+00
                       5.00000000E-01  1.66666667E-01  0.00000000E+00
                       0.00000000E+00  3.33333333E-01  0.00000000E+00
                       1.66666667E-01  3.33333333E-01  0.00000000E+00
                       3.33333333E-01  3.33333333E-01  0.00000000E+00
                       5.00000000E-01  3.33333333E-01  0.00000000E+00
                       0.00000000E+00  5.00000000E-01  0.00000000E+00
                       1.66666667E-01  5.00000000E-01  0.00000000E+00
                       3.33333333E-01  5.00000000E-01  0.00000000E+00
                       5.00000000E-01  5.00000000E-01  0.00000000E+00
            kptgw4     0.00000000E+00  0.00000000E+00  0.00000000E+00
         kptrlatt        6    0    0      0    6    0      0    0    1
          kptrlen      4.77189594E+01
P           mkmem           1
            natom          40
            nband3       1068
            nband4       1602
           ndtset           2
            ngfft          54      54     576
             nkpt          16
           nkptgw3          0
           nkptgw4          1
           npweps3       2933
           npweps4          0
          npwsigx3          0
          npwsigx4      33313
           npwwfn       94557
            nstep         100
             nsym           8
           ntypat           2
              occ3     2.000000  2.000000  2.000000  2.000000  2.000000  2.000000
                       2.000000  2.000000  2.000000  2.000000  2.000000  2.000000
                       2.000000  2.000000  2.000000  2.000000  2.000000  2.000000
                       2.000000  2.000000  2.000000  2.000000  2.000000  2.000000
                       2.000000  2.000000  2.000000  2.000000  2.000000  2.000000
                       2.000000  2.000000  2.000000  2.000000  2.000000  2.000000
                       2.000000  2.000000  2.000000  2.000000  2.000000  2.000000
                       2.000000  2.000000  2.000000  2.000000  2.000000  2.000000
                       2.000000  2.000000  2.000000  2.000000  2.000000  2.000000
                       2.000000  2.000000  2.000000  2.000000  2.000000  2.000000
                       2.000000  2.000000  2.000000  2.000000  2.000000  2.000000
                       2.000000  2.000000  0.000000  0.000000  0.000000  0.000000
                       0.000000  0.000000  0.000000  0.000000  0.000000  0.000000
                       0.000000  0.000000  0.000000  0.000000  0.000000  0.000000
                       0.000000  0.000000  0.000000  0.000000  0.000000  0.000000
                       0.000000  0.000000  0.000000  0.000000  0.000000  0.000000
                       0.000000  0.000000  0.000000  0.000000  0.000000  0.000000
                       0.000000  0.000000  0.000000  0.000000  0.000000  0.000000
                       0.000000  0.000000  0.000000  0.000000  0.000000  0.000000
                       0.000000  0.000000  0.000000  0.000000  0.000000  0.000000
                       0.000000  0.000000  0.000000  0.000000  0.000000  0.000000
                       0.000000  0.000000  0.000000  0.000000  0.000000  0.000000
                       0.000000  0.000000  0.000000  0.000000  0.000000  0.000000
                       0.000000  0.000000  0.000000  0.000000  0.000000  0.000000
                       0.000000  0.000000  0.000000  0.000000  0.000000  0.000000
                       0.000000  0.000000  0.000000  0.000000  0.000000  0.000000
                       0.000000  0.000000  0.000000  0.000000  0.000000  0.000000
                       0.000000  0.000000  0.000000  0.000000  0.000000  0.000000
                       0.000000  0.000000  0.000000  0.000000  0.000000  0.000000
                       0.000000  0.000000  0.000000  0.000000  0.000000  0.000000
                       0.000000  0.000000  0.000000  0.000000  0.000000  0.000000
                       0.000000  0.000000  0.000000  0.000000  0.000000  0.000000
                       0.000000  0.000000  0.000000  0.000000  0.000000  0.000000
                       0.000000  0.000000  0.000000  0.000000  0.000000  0.000000
                       0.000000  0.000000  0.000000  0.000000  0.000000  0.000000
                       0.000000  0.000000  0.000000  0.000000  0.000000  0.000000
                       0.000000  0.000000  0.000000  0.000000  0.000000  0.000000
                       0.000000  0.000000  0.000000  0.000000  0.000000  0.000000
                       0.000000  0.000000  0.000000  0.000000  0.000000  0.000000
                       0.000000  0.000000  0.000000  0.000000  0.000000  0.000000
                       0.000000  0.000000  0.000000  0.000000  0.000000  0.000000
                       0.000000  0.000000  0.000000  0.000000  0.000000  0.000000
                       0.000000  0.000000  0.000000  0.000000  0.000000  0.000000
                       0.000000  0.000000  0.000000  0.000000  0.000000  0.000000
                       0.000000  0.000000  0.000000  0.000000  0.000000  0.000000
                       0.000000  0.000000  0.000000  0.000000  0.000000  0.000000
                       0.000000  0.000000  0.000000  0.000000  0.000000  0.000000
                       0.000000  0.000000  0.000000  0.000000  0.000000  0.000000
                       0.000000  0.000000  0.000000  0.000000  0.000000  0.000000
                       0.000000  0.000000  0.000000  0.000000  0.000000  0.000000
                       0.000000  0.000000  0.000000  0.000000  0.000000  0.000000
                       0.000000  0.000000  0.000000  0.000000  0.000000  0.000000
                       0.000000  0.000000  0.000000  0.000000  0.000000  0.000000
                       0.000000  0.000000  0.000000  0.000000  0.000000  0.000000
                       0.000000  0.000000  0.000000  0.000000  0.000000  0.000000
                       0.000000  0.000000  0.000000  0.000000  0.000000  0.000000
                       0.000000  0.000000  0.000000  0.000000  0.000000  0.000000
                       0.000000  0.000000  0.000000  0.000000  0.000000  0.000000
                       0.000000  0.000000  0.000000  0.000000  0.000000  0.000000
                       0.000000  0.000000  0.000000  0.000000  0.000000  0.000000
                       0.000000  0.000000  0.000000  0.000000  0.000000  0.000000
                       0.000000  0.000000  0.000000  0.000000  0.000000  0.000000
                       0.000000  0.000000  0.000000  0.000000  0.000000  0.000000
                       0.000000  0.000000  0.000000  0.000000  0.000000  0.000000
                       0.000000  0.000000  0.000000  0.000000  0.000000  0.000000
                       0.000000  0.000000  0.000000  0.000000  0.000000  0.000000
                       0.000000  0.000000  0.000000  0.000000  0.000000  0.000000
                       0.000000  0.000000  0.000000  0.000000  0.000000  0.000000
                       0.000000  0.000000  0.000000  0.000000  0.000000  0.000000
                       0.000000  0.000000  0.000000  0.000000  0.000000  0.000000
                       0.000000  0.000000  0.000000  0.000000  0.000000  0.000000
                       0.000000  0.000000  0.000000  0.000000  0.000000  0.000000
                       0.000000  0.000000  0.000000  0.000000  0.000000  0.000000
                       0.000000  0.000000  0.000000  0.000000  0.000000  0.000000
                       0.000000  0.000000  0.000000  0.000000  0.000000  0.000000
                       0.000000  0.000000  0.000000  0.000000  0.000000  0.000000
                       0.000000  0.000000  0.000000  0.000000  0.000000  0.000000
                       0.000000  0.000000  0.000000  0.000000  0.000000  0.000000
                       0.000000  0.000000  0.000000  0.000000  0.000000  0.000000
                       0.000000  0.000000  0.000000  0.000000  0.000000  0.000000
                       0.000000  0.000000  0.000000  0.000000  0.000000  0.000000
                       0.000000  0.000000  0.000000  0.000000  0.000000  0.000000
                       0.000000  0.000000  0.000000  0.000000  0.000000  0.000000
                       0.000000  0.000000  0.000000  0.000000  0.000000  0.000000
                       0.000000  0.000000  0.000000  0.000000  0.000000  0.000000
                       0.000000  0.000000  0.000000  0.000000  0.000000  0.000000
                       0.000000  0.000000  0.000000  0.000000  0.000000  0.000000
                       0.000000  0.000000  0.000000  0.000000  0.000000  0.000000
                       0.000000  0.000000  0.000000  0.000000  0.000000  0.000000
                       0.000000  0.000000  0.000000  0.000000  0.000000  0.000000
                       0.000000  0.000000  0.000000  0.000000  0.000000  0.000000
                       0.000000  0.000000  0.000000  0.000000  0.000000  0.000000
                       0.000000  0.000000  0.000000  0.000000  0.000000  0.000000
                       0.000000  0.000000  0.000000  0.000000  0.000000  0.000000
                       0.000000  0.000000  0.000000  0.000000  0.000000  0.000000
                       0.000000  0.000000  0.000000  0.000000  0.000000  0.000000
                       0.000000  0.000000  0.000000  0.000000  0.000000  0.000000
                       0.000000  0.000000  0.000000  0.000000  0.000000  0.000000
                       0.000000  0.000000  0.000000  0.000000  0.000000  0.000000
                       0.000000  0.000000  0.000000  0.000000  0.000000  0.000000
                       0.000000  0.000000  0.000000  0.000000  0.000000  0.000000
                       0.000000  0.000000  0.000000  0.000000  0.000000  0.000000
                       0.000000  0.000000  0.000000  0.000000  0.000000  0.000000
                       0.000000  0.000000  0.000000  0.000000  0.000000  0.000000
                       0.000000  0.000000  0.000000  0.000000  0.000000  0.000000
                       0.000000  0.000000  0.000000  0.000000  0.000000  0.000000
                       0.000000  0.000000  0.000000  0.000000  0.000000  0.000000
                       0.000000  0.000000  0.000000  0.000000  0.000000  0.000000
                       0.000000  0.000000  0.000000  0.000000  0.000000  0.000000
                       0.000000  0.000000  0.000000  0.000000  0.000000  0.000000
                       0.000000  0.000000  0.000000  0.000000  0.000000  0.000000
                       0.000000  0.000000  0.000000  0.000000  0.000000  0.000000
                       0.000000  0.000000  0.000000  0.000000  0.000000  0.000000
                       0.000000  0.000000  0.000000  0.000000  0.000000  0.000000
                       0.000000  0.000000  0.000000  0.000000  0.000000  0.000000
                       0.000000  0.000000  0.000000  0.000000  0.000000  0.000000
                       0.000000  0.000000  0.000000  0.000000  0.000000  0.000000
                       0.000000  0.000000  0.000000  0.000000  0.000000  0.000000
                       0.000000  0.000000  0.000000  0.000000  0.000000  0.000000
                       0.000000  0.000000  0.000000  0.000000  0.000000  0.000000
                       0.000000  0.000000  0.000000  0.000000  0.000000  0.000000
                       0.000000  0.000000  0.000000  0.000000  0.000000  0.000000
                       0.000000  0.000000  0.000000  0.000000  0.000000  0.000000
                       0.000000  0.000000  0.000000  0.000000  0.000000  0.000000
                       0.000000  0.000000  0.000000  0.000000  0.000000  0.000000
                       0.000000  0.000000  0.000000  0.000000  0.000000  0.000000
                       0.000000  0.000000  0.000000  0.000000  0.000000  0.000000
                       0.000000  0.000000  0.000000  0.000000  0.000000  0.000000
                       0.000000  0.000000  0.000000  0.000000  0.000000  0.000000
                       0.000000  0.000000  0.000000  0.000000  0.000000  0.000000
                       0.000000  0.000000  0.000000  0.000000  0.000000  0.000000
                       0.000000  0.000000  0.000000  0.000000  0.000000  0.000000
                       0.000000  0.000000  0.000000  0.000000  0.000000  0.000000
                       0.000000  0.000000  0.000000  0.000000  0.000000  0.000000
                       0.000000  0.000000  0.000000  0.000000  0.000000  0.000000
                       0.000000  0.000000  0.000000  0.000000  0.000000  0.000000
                       0.000000  0.000000  0.000000  0.000000  0.000000  0.000000
                       0.000000  0.000000  0.000000  0.000000  0.000000  0.000000
                       0.000000  0.000000  0.000000  0.000000  0.000000  0.000000
                       0.000000  0.000000  0.000000  0.000000  0.000000  0.000000
                       0.000000  0.000000  0.000000  0.000000  0.000000  0.000000
                       0.000000  0.000000  0.000000  0.000000  0.000000  0.000000
                       0.000000  0.000000  0.000000  0.000000  0.000000  0.000000
                       0.000000  0.000000  0.000000  0.000000  0.000000  0.000000
                       0.000000  0.000000  0.000000  0.000000  0.000000  0.000000
                       0.000000  0.000000  0.000000  0.000000  0.000000  0.000000
                       0.000000  0.000000  0.000000  0.000000  0.000000  0.000000
                       0.000000  0.000000  0.000000  0.000000  0.000000  0.000000
                       0.000000  0.000000  0.000000  0.000000  0.000000  0.000000
                       0.000000  0.000000  0.000000  0.000000  0.000000  0.000000
                       0.000000  0.000000  0.000000  0.000000  0.000000  0.000000
                       0.000000  0.000000  0.000000  0.000000  0.000000  0.000000
                       0.000000  0.000000  0.000000  0.000000  0.000000  0.000000
                       0.000000  0.000000  0.000000  0.000000  0.000000  0.000000
                       0.000000  0.000000  0.000000  0.000000  0.000000  0.000000
                       0.000000  0.000000  0.000000  0.000000  0.000000  0.000000
                       0.000000  0.000000  0.000000  0.000000  0.000000  0.000000
                       0.000000  0.000000  0.000000  0.000000  0.000000  0.000000
                       0.000000  0.000000  0.000000  0.000000  0.000000  0.000000
                       0.000000  0.000000  0.000000  0.000000  0.000000  0.000000
                       0.000000  0.000000  0.000000  0.000000  0.000000  0.000000
                       0.000000  0.000000  0.000000  0.000000  0.000000  0.000000
                       0.000000  0.000000  0.000000  0.000000  0.000000  0.000000
                       0.000000  0.000000  0.000000  0.000000  0.000000  0.000000
                       0.000000  0.000000  0.000000  0.000000  0.000000  0.000000
                       0.000000  0.000000  0.000000  0.000000  0.000000  0.000000
                       0.000000  0.000000  0.000000  0.000000  0.000000  0.000000
                       0.000000  0.000000  0.000000  0.000000  0.000000  0.000000
                       0.000000  0.000000  0.000000  0.000000  0.000000  0.000000
                       0.000000  0.000000  0.000000  0.000000  0.000000  0.000000
                       0.000000  0.000000  0.000000  0.000000  0.000000  0.000000
                       0.000000  0.000000  0.000000  0.000000  0.000000  0.000000
                       0.000000  0.000000  0.000000  0.000000  0.000000  0.000000
                       0.000000  0.000000  0.000000  0.000000  0.000000  0.000000
                       0.000000  0.000000  0.000000  0.000000  0.000000  0.000000
                       0.000000  0.000000  0.000000  0.000000  0.000000  0.000000
                       0.000000  0.000000  0.000000  0.000000  0.000000  0.000000
                       0.000000  0.000000  0.000000  0.000000  0.000000  0.000000
              occ4     2.000000  2.000000  2.000000  2.000000  2.000000  2.000000
                       2.000000  2.000000  2.000000  2.000000  2.000000  2.000000
                       2.000000  2.000000  2.000000  2.000000  2.000000  2.000000
                       2.000000  2.000000  2.000000  2.000000  2.000000  2.000000
                       2.000000  2.000000  2.000000  2.000000  2.000000  2.000000
                       2.000000  2.000000  2.000000  2.000000  2.000000  2.000000
                       2.000000  2.000000  2.000000  2.000000  2.000000  2.000000
                       2.000000  2.000000  2.000000  2.000000  2.000000  2.000000
                       2.000000  2.000000  2.000000  2.000000  2.000000  2.000000
                       2.000000  2.000000  2.000000  2.000000  2.000000  2.000000
                       2.000000  2.000000  2.000000  2.000000  2.000000  2.000000
                       2.000000  2.000000  0.000000  0.000000  0.000000  0.000000
                       0.000000  0.000000  0.000000  0.000000  0.000000  0.000000
                       0.000000  0.000000  0.000000  0.000000  0.000000  0.000000
                       0.000000  0.000000  0.000000  0.000000  0.000000  0.000000
                       0.000000  0.000000  0.000000  0.000000  0.000000  0.000000
                       0.000000  0.000000  0.000000  0.000000  0.000000  0.000000
                       0.000000  0.000000  0.000000  0.000000  0.000000  0.000000
                       0.000000  0.000000  0.000000  0.000000  0.000000  0.000000
                       0.000000  0.000000  0.000000  0.000000  0.000000  0.000000
                       0.000000  0.000000  0.000000  0.000000  0.000000  0.000000
                       0.000000  0.000000  0.000000  0.000000  0.000000  0.000000
                       0.000000  0.000000  0.000000  0.000000  0.000000  0.000000
                       0.000000  0.000000  0.000000  0.000000  0.000000  0.000000
                       0.000000  0.000000  0.000000  0.000000  0.000000  0.000000
                       0.000000  0.000000  0.000000  0.000000  0.000000  0.000000
                       0.000000  0.000000  0.000000  0.000000  0.000000  0.000000
                       0.000000  0.000000  0.000000  0.000000  0.000000  0.000000
                       0.000000  0.000000  0.000000  0.000000  0.000000  0.000000
                       0.000000  0.000000  0.000000  0.000000  0.000000  0.000000
                       0.000000  0.000000  0.000000  0.000000  0.000000  0.000000
                       0.000000  0.000000  0.000000  0.000000  0.000000  0.000000
                       0.000000  0.000000  0.000000  0.000000  0.000000  0.000000
                       0.000000  0.000000  0.000000  0.000000  0.000000  0.000000
                       0.000000  0.000000  0.000000  0.000000  0.000000  0.000000
                       0.000000  0.000000  0.000000  0.000000  0.000000  0.000000
                       0.000000  0.000000  0.000000  0.000000  0.000000  0.000000
                       0.000000  0.000000  0.000000  0.000000  0.000000  0.000000
                       0.000000  0.000000  0.000000  0.000000  0.000000  0.000000
                       0.000000  0.000000  0.000000  0.000000  0.000000  0.000000
                       0.000000  0.000000  0.000000  0.000000  0.000000  0.000000
                       0.000000  0.000000  0.000000  0.000000  0.000000  0.000000
                       0.000000  0.000000  0.000000  0.000000  0.000000  0.000000
                       0.000000  0.000000  0.000000  0.000000  0.000000  0.000000
                       0.000000  0.000000  0.000000  0.000000  0.000000  0.000000
                       0.000000  0.000000  0.000000  0.000000  0.000000  0.000000
                       0.000000  0.000000  0.000000  0.000000  0.000000  0.000000
                       0.000000  0.000000  0.000000  0.000000  0.000000  0.000000
                       0.000000  0.000000  0.000000  0.000000  0.000000  0.000000
                       0.000000  0.000000  0.000000  0.000000  0.000000  0.000000
                       0.000000  0.000000  0.000000  0.000000  0.000000  0.000000
                       0.000000  0.000000  0.000000  0.000000  0.000000  0.000000
                       0.000000  0.000000  0.000000  0.000000  0.000000  0.000000
                       0.000000  0.000000  0.000000  0.000000  0.000000  0.000000
                       0.000000  0.000000  0.000000  0.000000  0.000000  0.000000
                       0.000000  0.000000  0.000000  0.000000  0.000000  0.000000
                       0.000000  0.000000  0.000000  0.000000  0.000000  0.000000
                       0.000000  0.000000  0.000000  0.000000  0.000000  0.000000
                       0.000000  0.000000  0.000000  0.000000  0.000000  0.000000
                       0.000000  0.000000  0.000000  0.000000  0.000000  0.000000
                       0.000000  0.000000  0.000000  0.000000  0.000000  0.000000
                       0.000000  0.000000  0.000000  0.000000  0.000000  0.000000
                       0.000000  0.000000  0.000000  0.000000  0.000000  0.000000
                       0.000000  0.000000  0.000000  0.000000  0.000000  0.000000
                       0.000000  0.000000  0.000000  0.000000  0.000000  0.000000
                       0.000000  0.000000  0.000000  0.000000  0.000000  0.000000
                       0.000000  0.000000  0.000000  0.000000  0.000000  0.000000
                       0.000000  0.000000  0.000000  0.000000  0.000000  0.000000
                       0.000000  0.000000  0.000000  0.000000  0.000000  0.000000
                       0.000000  0.000000  0.000000  0.000000  0.000000  0.000000
                       0.000000  0.000000  0.000000  0.000000  0.000000  0.000000
                       0.000000  0.000000  0.000000  0.000000  0.000000  0.000000
                       0.000000  0.000000  0.000000  0.000000  0.000000  0.000000
                       0.000000  0.000000  0.000000  0.000000  0.000000  0.000000
                       0.000000  0.000000  0.000000  0.000000  0.000000  0.000000
                       0.000000  0.000000  0.000000  0.000000  0.000000  0.000000
                       0.000000  0.000000  0.000000  0.000000  0.000000  0.000000
                       0.000000  0.000000  0.000000  0.000000  0.000000  0.000000
                       0.000000  0.000000  0.000000  0.000000  0.000000  0.000000
                       0.000000  0.000000  0.000000  0.000000  0.000000  0.000000
                       0.000000  0.000000  0.000000  0.000000  0.000000  0.000000
                       0.000000  0.000000  0.000000  0.000000  0.000000  0.000000
                       0.000000  0.000000  0.000000  0.000000  0.000000  0.000000
                       0.000000  0.000000  0.000000  0.000000  0.000000  0.000000
                       0.000000  0.000000  0.000000  0.000000  0.000000  0.000000
                       0.000000  0.000000  0.000000  0.000000  0.000000  0.000000
                       0.000000  0.000000  0.000000  0.000000  0.000000  0.000000
                       0.000000  0.000000  0.000000  0.000000  0.000000  0.000000
                       0.000000  0.000000  0.000000  0.000000  0.000000  0.000000
                       0.000000  0.000000  0.000000  0.000000  0.000000  0.000000
                       0.000000  0.000000  0.000000  0.000000  0.000000  0.000000
                       0.000000  0.000000  0.000000  0.000000  0.000000  0.000000
                       0.000000  0.000000  0.000000  0.000000  0.000000  0.000000
                       0.000000  0.000000  0.000000  0.000000  0.000000  0.000000
                       0.000000  0.000000  0.000000  0.000000  0.000000  0.000000
                       0.000000  0.000000  0.000000  0.000000  0.000000  0.000000
                       0.000000  0.000000  0.000000  0.000000  0.000000  0.000000
                       0.000000  0.000000  0.000000  0.000000  0.000000  0.000000
                       0.000000  0.000000  0.000000  0.000000  0.000000  0.000000
                       0.000000  0.000000  0.000000  0.000000  0.000000  0.000000
                       0.000000  0.000000  0.000000  0.000000  0.000000  0.000000
                       0.000000  0.000000  0.000000  0.000000  0.000000  0.000000
                       0.000000  0.000000  0.000000  0.000000  0.000000  0.000000
                       0.000000  0.000000  0.000000  0.000000  0.000000  0.000000
                       0.000000  0.000000  0.000000  0.000000  0.000000  0.000000
                       0.000000  0.000000  0.000000  0.000000  0.000000  0.000000
                       0.000000  0.000000  0.000000  0.000000  0.000000  0.000000
                       0.000000  0.000000  0.000000  0.000000  0.000000  0.000000
                       0.000000  0.000000  0.000000  0.000000  0.000000  0.000000
                       0.000000  0.000000  0.000000  0.000000  0.000000  0.000000
                       0.000000  0.000000  0.000000  0.000000  0.000000  0.000000
                       0.000000  0.000000  0.000000  0.000000  0.000000  0.000000
                       0.000000  0.000000  0.000000  0.000000  0.000000  0.000000
                       0.000000  0.000000  0.000000  0.000000  0.000000  0.000000
                       0.000000  0.000000  0.000000  0.000000  0.000000  0.000000
                       0.000000  0.000000  0.000000  0.000000  0.000000  0.000000
                       0.000000  0.000000  0.000000  0.000000  0.000000  0.000000
                       0.000000  0.000000  0.000000  0.000000  0.000000  0.000000
                       0.000000  0.000000  0.000000  0.000000  0.000000  0.000000
                       0.000000  0.000000  0.000000  0.000000  0.000000  0.000000
                       0.000000  0.000000  0.000000  0.000000  0.000000  0.000000
                       0.000000  0.000000  0.000000  0.000000  0.000000  0.000000
                       0.000000  0.000000  0.000000  0.000000  0.000000  0.000000
                       0.000000  0.000000  0.000000  0.000000  0.000000  0.000000
                       0.000000  0.000000  0.000000  0.000000  0.000000  0.000000
                       0.000000  0.000000  0.000000  0.000000  0.000000  0.000000
                       0.000000  0.000000  0.000000  0.000000  0.000000  0.000000
                       0.000000  0.000000  0.000000  0.000000  0.000000  0.000000
                       0.000000  0.000000  0.000000  0.000000  0.000000  0.000000
                       0.000000  0.000000  0.000000  0.000000  0.000000  0.000000
                       0.000000  0.000000  0.000000  0.000000  0.000000  0.000000
                       0.000000  0.000000  0.000000  0.000000  0.000000  0.000000
                       0.000000  0.000000  0.000000  0.000000  0.000000  0.000000
                       0.000000  0.000000  0.000000  0.000000  0.000000  0.000000
                       0.000000  0.000000  0.000000  0.000000  0.000000  0.000000
                       0.000000  0.000000  0.000000  0.000000  0.000000  0.000000
                       0.000000  0.000000  0.000000  0.000000  0.000000  0.000000
                       0.000000  0.000000  0.000000  0.000000  0.000000  0.000000
                       0.000000  0.000000  0.000000  0.000000  0.000000  0.000000
                       0.000000  0.000000  0.000000  0.000000  0.000000  0.000000
                       0.000000  0.000000  0.000000  0.000000  0.000000  0.000000
                       0.000000  0.000000  0.000000  0.000000  0.000000  0.000000
                       0.000000  0.000000  0.000000  0.000000  0.000000  0.000000
                       0.000000  0.000000  0.000000  0.000000  0.000000  0.000000
                       0.000000  0.000000  0.000000  0.000000  0.000000  0.000000
                       0.000000  0.000000  0.000000  0.000000  0.000000  0.000000
                       0.000000  0.000000  0.000000  0.000000  0.000000  0.000000
                       0.000000  0.000000  0.000000  0.000000  0.000000  0.000000
                       0.000000  0.000000  0.000000  0.000000  0.000000  0.000000
                       0.000000  0.000000  0.000000  0.000000  0.000000  0.000000
                       0.000000  0.000000  0.000000  0.000000  0.000000  0.000000
                       0.000000  0.000000  0.000000  0.000000  0.000000  0.000000
                       0.000000  0.000000  0.000000  0.000000  0.000000  0.000000
                       0.000000  0.000000  0.000000  0.000000  0.000000  0.000000
                       0.000000  0.000000  0.000000  0.000000  0.000000  0.000000
                       0.000000  0.000000  0.000000  0.000000  0.000000  0.000000
                       0.000000  0.000000  0.000000  0.000000  0.000000  0.000000
                       0.000000  0.000000  0.000000  0.000000  0.000000  0.000000
                       0.000000  0.000000  0.000000  0.000000  0.000000  0.000000
                       0.000000  0.000000  0.000000  0.000000  0.000000  0.000000
                       0.000000  0.000000  0.000000  0.000000  0.000000  0.000000
                       0.000000  0.000000  0.000000  0.000000  0.000000  0.000000
                       0.000000  0.000000  0.000000  0.000000  0.000000  0.000000
                       0.000000  0.000000  0.000000  0.000000  0.000000  0.000000
                       0.000000  0.000000  0.000000  0.000000  0.000000  0.000000
                       0.000000  0.000000  0.000000  0.000000  0.000000  0.000000
                       0.000000  0.000000  0.000000  0.000000  0.000000  0.000000
                       0.000000  0.000000  0.000000  0.000000  0.000000  0.000000
                       0.000000  0.000000  0.000000  0.000000  0.000000  0.000000
                       0.000000  0.000000  0.000000  0.000000  0.000000  0.000000
                       0.000000  0.000000  0.000000  0.000000  0.000000  0.000000
                       0.000000  0.000000  0.000000  0.000000  0.000000  0.000000
                       0.000000  0.000000  0.000000  0.000000  0.000000  0.000000
                       0.000000  0.000000  0.000000  0.000000  0.000000  0.000000
                       0.000000  0.000000  0.000000  0.000000  0.000000  0.000000
                       0.000000  0.000000  0.000000  0.000000  0.000000  0.000000
                       0.000000  0.000000  0.000000  0.000000  0.000000  0.000000
                       0.000000  0.000000  0.000000  0.000000  0.000000  0.000000
                       0.000000  0.000000  0.000000  0.000000  0.000000  0.000000
                       0.000000  0.000000  0.000000  0.000000  0.000000  0.000000
                       0.000000  0.000000  0.000000  0.000000  0.000000  0.000000
                       0.000000  0.000000  0.000000  0.000000  0.000000  0.000000
                       0.000000  0.000000  0.000000  0.000000  0.000000  0.000000
                       0.000000  0.000000  0.000000  0.000000  0.000000  0.000000
                       0.000000  0.000000  0.000000  0.000000  0.000000  0.000000
                       0.000000  0.000000  0.000000  0.000000  0.000000  0.000000
                       0.000000  0.000000  0.000000  0.000000  0.000000  0.000000
                       0.000000  0.000000  0.000000  0.000000  0.000000  0.000000
                       0.000000  0.000000  0.000000  0.000000  0.000000  0.000000
                       0.000000  0.000000  0.000000  0.000000  0.000000  0.000000
                       0.000000  0.000000  0.000000  0.000000  0.000000  0.000000
                       0.000000  0.000000  0.000000  0.000000  0.000000  0.000000
                       0.000000  0.000000  0.000000  0.000000  0.000000  0.000000
                       0.000000  0.000000  0.000000  0.000000  0.000000  0.000000
                       0.000000  0.000000  0.000000  0.000000  0.000000  0.000000
                       0.000000  0.000000  0.000000  0.000000  0.000000  0.000000
                       0.000000  0.000000  0.000000  0.000000  0.000000  0.000000
                       0.000000  0.000000  0.000000  0.000000  0.000000  0.000000
                       0.000000  0.000000  0.000000  0.000000  0.000000  0.000000
                       0.000000  0.000000  0.000000  0.000000  0.000000  0.000000
                       0.000000  0.000000  0.000000  0.000000  0.000000  0.000000
                       0.000000  0.000000  0.000000  0.000000  0.000000  0.000000
                       0.000000  0.000000  0.000000  0.000000  0.000000  0.000000
                       0.000000  0.000000  0.000000  0.000000  0.000000  0.000000
                       0.000000  0.000000  0.000000  0.000000  0.000000  0.000000
                       0.000000  0.000000  0.000000  0.000000  0.000000  0.000000
                       0.000000  0.000000  0.000000  0.000000  0.000000  0.000000
                       0.000000  0.000000  0.000000  0.000000  0.000000  0.000000
                       0.000000  0.000000  0.000000  0.000000  0.000000  0.000000
                       0.000000  0.000000  0.000000  0.000000  0.000000  0.000000
                       0.000000  0.000000  0.000000  0.000000  0.000000  0.000000
                       0.000000  0.000000  0.000000  0.000000  0.000000  0.000000
                       0.000000  0.000000  0.000000  0.000000  0.000000  0.000000
                       0.000000  0.000000  0.000000  0.000000  0.000000  0.000000
                       0.000000  0.000000  0.000000  0.000000  0.000000  0.000000
                       0.000000  0.000000  0.000000  0.000000  0.000000  0.000000
                       0.000000  0.000000  0.000000  0.000000  0.000000  0.000000
                       0.000000  0.000000  0.000000  0.000000  0.000000  0.000000
                       0.000000  0.000000  0.000000  0.000000  0.000000  0.000000
                       0.000000  0.000000  0.000000  0.000000  0.000000  0.000000
                       0.000000  0.000000  0.000000  0.000000  0.000000  0.000000
                       0.000000  0.000000  0.000000  0.000000  0.000000  0.000000
                       0.000000  0.000000  0.000000  0.000000  0.000000  0.000000
                       0.000000  0.000000  0.000000  0.000000  0.000000  0.000000
                       0.000000  0.000000  0.000000  0.000000  0.000000  0.000000
                       0.000000  0.000000  0.000000  0.000000  0.000000  0.000000
                       0.000000  0.000000  0.000000  0.000000  0.000000  0.000000
                       0.000000  0.000000  0.000000  0.000000  0.000000  0.000000
                       0.000000  0.000000  0.000000  0.000000  0.000000  0.000000
                       0.000000  0.000000  0.000000  0.000000  0.000000  0.000000
                       0.000000  0.000000  0.000000  0.000000  0.000000  0.000000
                       0.000000  0.000000  0.000000  0.000000  0.000000  0.000000
                       0.000000  0.000000  0.000000  0.000000  0.000000  0.000000
                       0.000000  0.000000  0.000000  0.000000  0.000000  0.000000
                       0.000000  0.000000  0.000000  0.000000  0.000000  0.000000
                       0.000000  0.000000  0.000000  0.000000  0.000000  0.000000
                       0.000000  0.000000  0.000000  0.000000  0.000000  0.000000
                       0.000000  0.000000  0.000000  0.000000  0.000000  0.000000
                       0.000000  0.000000  0.000000  0.000000  0.000000  0.000000
                       0.000000  0.000000  0.000000  0.000000  0.000000  0.000000
                       0.000000  0.000000  0.000000  0.000000  0.000000  0.000000
                       0.000000  0.000000  0.000000  0.000000  0.000000  0.000000
                       0.000000  0.000000  0.000000  0.000000  0.000000  0.000000
                       0.000000  0.000000  0.000000  0.000000  0.000000  0.000000
                       0.000000  0.000000  0.000000  0.000000  0.000000  0.000000
                       0.000000  0.000000  0.000000  0.000000  0.000000  0.000000
                       0.000000  0.000000  0.000000  0.000000  0.000000  0.000000
                       0.000000  0.000000  0.000000  0.000000  0.000000  0.000000
                       0.000000  0.000000  0.000000  0.000000  0.000000  0.000000
                       0.000000  0.000000  0.000000  0.000000  0.000000  0.000000
                       0.000000  0.000000  0.000000  0.000000  0.000000  0.000000
                       0.000000  0.000000  0.000000  0.000000  0.000000  0.000000
                       0.000000  0.000000  0.000000  0.000000  0.000000  0.000000
                       0.000000  0.000000  0.000000  0.000000  0.000000  0.000000
                       0.000000  0.000000  0.000000  0.000000  0.000000  0.000000
                       0.000000  0.000000  0.000000  0.000000  0.000000  0.000000
                       0.000000  0.000000  0.000000  0.000000  0.000000  0.000000
                       0.000000  0.000000  0.000000  0.000000  0.000000  0.000000
                       0.000000  0.000000  0.000000  0.000000  0.000000  0.000000
                       0.000000  0.000000  0.000000  0.000000  0.000000  0.000000
                       0.000000  0.000000  0.000000  0.000000  0.000000  0.000000
                       0.000000  0.000000  0.000000  0.000000  0.000000  0.000000
                       0.000000  0.000000  0.000000  0.000000  0.000000  0.000000
                       0.000000  0.000000  0.000000  0.000000  0.000000  0.000000
                       0.000000  0.000000  0.000000  0.000000  0.000000  0.000000
                       0.000000  0.000000  0.000000  0.000000  0.000000  0.000000
                       0.000000  0.000000  0.000000  0.000000  0.000000  0.000000
        optdriver3          3
        optdriver4          4
           ppmfrq3     6.13713734E-01 Hartree
           ppmfrq4     0.00000000E+00 Hartree
          spgroup          57
           symrel      1  0  0   0  1  0   0  0  1      -1  0  0   0 -1  0   0  0 -1
                      -1  0  0   0  1  0   0  0 -1       1  0  0   0 -1  0   0  0  1
                      -1  0  0   0 -1  0   0  0  1       1  0  0   0  1  0   0  0 -1
                       1  0  0   0 -1  0   0  0 -1      -1  0  0   0  1  0   0  0  1
            tnons      0.0000000  0.0000000  0.0000000     0.0000000 -0.0000000 -0.0000000
                       0.5000000  0.5000000 -0.0000000     0.5000000  0.5000000  0.0000000
                       0.0000000  0.5000000  0.0000000     0.0000000  0.5000000 -0.0000000
                       0.5000000 -0.0000000 -0.0000000     0.5000000  0.0000000  0.0000000
           toldfe      1.00000000E-08 Hartree
           tolsym      1.00000000E-04
            typat      1  1  1  1  1  1  1  1  1  1  1  1  1  1  1  1  1  1  1  1
                       1  1  1  1  1  1  1  1  1  1  1  1  2  2  2  2  2  2  2  2
          usekden           1
          vcutgeo      1.0000000  1.0000000  0.0000000
              wtk        0.02778    0.05556    0.05556    0.02778    0.05556    0.11111
                         0.11111    0.05556    0.05556    0.11111    0.11111    0.05556
                         0.02778    0.05556    0.05556    0.02778
           xangst      3.9281266812E+00  1.8036990759E+00  1.8132736230E+01
                       2.8050427046E-01  2.5743673431E+00  2.6867263770E+01
                       1.8238112054E+00  2.5743673431E+00  2.6867263770E+01
                       2.3848197463E+00  1.8036990759E+00  1.8132736230E+01
                       2.3848197463E+00  3.9927322854E+00  2.6867263770E+01
                       1.8238112054E+00  3.8533413363E-01  1.8132736230E+01
                       2.8050427046E-01  3.8533413363E-01  1.8132736230E+01
                       3.9281266812E+00  3.9927322854E+00  2.6867263770E+01
                       3.9454632820E+00  1.8251400546E+00  2.0616632883E+01
                       2.6316766965E-01  2.5529263644E+00  2.4383367117E+01
                       1.8411478062E+00  2.5529263644E+00  2.4383367117E+01
                       2.3674831455E+00  1.8251400546E+00  2.0616632883E+01
                       2.3674831455E+00  4.0141732641E+00  2.4383367117E+01
                       1.8411478062E+00  3.6389315488E-01  2.0616632883E+01
                       2.6316766965E-01  3.6389315488E-01  2.0616632883E+01
                       3.9454632820E+00  4.0141732641E+00  2.4383367117E+01
                       3.9447173734E+00  1.8238860206E+00  2.3127749280E+01
                       2.6391357828E-01  2.5541803984E+00  2.1872250720E+01
                       1.8404018975E+00  2.5541803984E+00  2.1872250720E+01
                       2.3682290541E+00  1.8238860206E+00  2.3127749280E+01
                       2.3682290541E+00  4.0129192301E+00  2.1872250720E+01
                       1.8404018975E+00  3.6514718892E-01  2.3127749280E+01
                       2.6391357828E-01  3.6514718892E-01  2.3127749280E+01
                       3.9447173734E+00  4.0129192301E+00  2.1872250720E+01
                       3.9440471637E+00  1.8208925985E+00  2.5642682398E+01
                       2.6458378795E-01  2.5571738205E+00  1.9357317602E+01
                       1.8397316879E+00  2.5571738205E+00  1.9357317602E+01
                       2.3688992638E+00  1.8208925985E+00  2.5642682398E+01
                       2.3688992638E+00  4.0099258080E+00  1.9357317602E+01
                       1.8397316879E+00  3.6814061102E-01  2.5642682398E+01
                       2.6458378795E-01  3.6814061102E-01  2.5642682398E+01
                       3.9440471637E+00  4.0099258080E+00  1.9357317602E+01
                       4.1510888202E+00  2.0757484229E+00  2.7783050658E+01
                       5.7542131487E-02  2.3023179961E+00  1.7216949342E+01
                       2.0467733443E+00  2.3023179961E+00  1.7216949342E+01
                       2.1618576073E+00  2.0757484229E+00  2.7783050658E+01
                       2.1618576073E+00  4.2647816324E+00  1.7216949342E+01
                       2.0467733443E+00  1.1328478664E-01  2.7783050658E+01
                       5.7542131487E-02  1.1328478664E-01  2.7783050658E+01
                       4.1510888202E+00  4.2647816324E+00  1.7216949342E+01
            xcart      7.4230836427E+00  3.4084972795E+00  3.4265905515E+01
                       5.3007625028E-01  4.8648492440E+00  5.0771770465E+01
                       3.4465036962E+00  4.8648492440E+00  5.0771770465E+01
                       4.5066561968E+00  3.4084972795E+00  3.4265905515E+01
                       4.5066561968E+00  7.5451705413E+00  5.0771770465E+01
                       3.4465036962E+00  7.2817598220E-01  3.4265905515E+01
                       5.3007625028E-01  7.2817598220E-01  3.4265905515E+01
                       7.4230836427E+00  7.5451705413E+00  5.0771770465E+01
                       7.4558450703E+00  3.4490148574E+00  3.8959789930E+01
                       4.9731482267E-01  4.8243316661E+00  4.6077886050E+01
                       3.4792651238E+00  4.8243316661E+00  4.6077886050E+01
                       4.4738947692E+00  3.4490148574E+00  3.8959789930E+01
                       4.4738947692E+00  7.5856881191E+00  4.6077886050E+01
                       3.4792651238E+00  6.8765840436E-01  3.8959789930E+01
                       4.9731482267E-01  6.8765840436E-01  3.8959789930E+01
                       7.4558450703E+00  7.5856881191E+00  4.6077886050E+01
                       7.4544355073E+00  3.4466450765E+00  4.3705112209E+01
                       4.9872438570E-01  4.8267014470E+00  4.1332563771E+01
                       3.4778555608E+00  4.8267014470E+00  4.1332563771E+01
                       4.4753043322E+00  3.4466450765E+00  4.3705112209E+01
                       4.4753043322E+00  7.5833183382E+00  4.1332563771E+01
                       3.4778555608E+00  6.9002818525E-01  4.3705112209E+01
                       4.9872438570E-01  6.9002818525E-01  4.3705112209E+01
                       7.4544355073E+00  7.5833183382E+00  4.1332563771E+01
                       7.4531689946E+00  3.4409883285E+00  4.8457647045E+01
                       4.9999089842E-01  4.8323581950E+00  3.6580028935E+01
                       3.4765890481E+00  4.8323581950E+00  3.6580028935E+01
                       4.4765708449E+00  3.4409883285E+00  4.8457647045E+01
                       4.4765708449E+00  7.5776615903E+00  3.6580028935E+01
                       3.4765890481E+00  6.9568493321E-01  4.8457647045E+01
                       4.9999089842E-01  6.9568493321E-01  4.8457647045E+01
                       7.4531689946E+00  7.5776615903E+00  3.6580028935E+01
                       7.8444210234E+00  3.9225960400E+00  5.2502356880E+01
                       1.0873886961E-01  4.3507504835E+00  3.2535319100E+01
                       3.8678410769E+00  4.3507504835E+00  3.2535319100E+01
                       4.0853188161E+00  3.9225960400E+00  5.2502356880E+01
                       4.0853188161E+00  8.0592693017E+00  3.2535319100E+01
                       3.8678410769E+00  2.1407722177E-01  5.2502356880E+01
                       1.0873886961E-01  2.1407722177E-01  5.2502356880E+01
                       7.8444210234E+00  8.0592693017E+00  3.2535319100E+01
             xred      9.3335023344E-01  4.1198531572E-01  4.0294969401E-01
                       6.6649766560E-02  5.8801468428E-01  5.9705030599E-01
                       4.3335023344E-01  5.8801468428E-01  5.9705030599E-01
                       5.6664976656E-01  4.1198531572E-01  4.0294969401E-01
                       5.6664976656E-01  9.1198531572E-01  5.9705030599E-01
                       4.3335023344E-01  8.8014684280E-02  4.0294969401E-01
                       6.6649766560E-02  8.8014684280E-02  4.0294969401E-01
                       9.3335023344E-01  9.1198531572E-01  5.9705030599E-01
                       9.3746953043E-01  4.1688267832E-01  4.5814739739E-01
                       6.2530469570E-02  5.8311732168E-01  5.4185260261E-01
                       4.3746953043E-01  5.8311732168E-01  5.4185260261E-01
                       5.6253046957E-01  4.1688267832E-01  4.5814739739E-01
                       5.6253046957E-01  9.1688267832E-01  5.4185260261E-01
                       4.3746953043E-01  8.3117321680E-02  4.5814739739E-01
                       6.2530469570E-02  8.3117321680E-02  4.5814739739E-01
                       9.3746953043E-01  9.1688267832E-01  5.4185260261E-01
                       9.3729229735E-01  4.1659624273E-01  5.1394998400E-01
                       6.2707702650E-02  5.8340375727E-01  4.8605001600E-01
                       4.3729229735E-01  5.8340375727E-01  4.8605001600E-01
                       5.6270770265E-01  4.1659624273E-01  5.1394998400E-01
                       5.6270770265E-01  9.1659624273E-01  4.8605001600E-01
                       4.3729229735E-01  8.3403757269E-02  5.1394998400E-01
                       6.2707702650E-02  8.3403757269E-02  5.1394998400E-01
                       9.3729229735E-01  9.1659624273E-01  4.8605001600E-01
                       9.3713305087E-01  4.1591251119E-01  5.6983738662E-01
                       6.2866949130E-02  5.8408748881E-01  4.3016261338E-01
                       4.3713305087E-01  5.8408748881E-01  4.3016261338E-01
                       5.6286694913E-01  4.1591251119E-01  5.6983738662E-01
                       5.6286694913E-01  9.1591251119E-01  4.3016261338E-01
                       4.3713305087E-01  8.4087488810E-02  5.6983738662E-01
                       6.2866949130E-02  8.4087488810E-02  5.6983738662E-01
                       9.3713305087E-01  9.1591251119E-01  4.3016261338E-01
                       9.8632758915E-01  4.7412447053E-01  6.1740112573E-01
                       1.3672410850E-02  5.2587552947E-01  3.8259887427E-01
                       4.8632758915E-01  5.2587552947E-01  3.8259887427E-01
                       5.1367241085E-01  4.7412447053E-01  6.1740112573E-01
                       5.1367241085E-01  9.7412447053E-01  3.8259887427E-01
                       4.8632758915E-01  2.5875529468E-02  6.1740112573E-01
                       1.3672410850E-02  2.5875529468E-02  6.1740112573E-01
                       9.8632758915E-01  9.7412447053E-01  3.8259887427E-01
            znucl        6.00000    1.00000
 
================================================================================
 
 chkinp: Checking input parameters for consistency, jdtset=   3.
 
 chkinp: Checking input parameters for consistency, jdtset=   4.
 
================================================================================
== DATASET  3 ==================================================================
-   mpi_nproc: 96, omp_nthreads: -1 (-1 if OMP is not activated)
 

--- !DatasetInfo
iteration_state: {dtset: 3, }
dimensions: {natom: 40, nkpt: 16, mband: 1068, nsppol: 1, nspinor: 1, nspden: 1, mpw: 94557, }
cutoff_energies: {ecut:  50.0, pawecutdg:  -1.0, }
electrons: {nelect:   1.36000000E+02, charge:   0.00000000E+00, occopt:   1.00000000E+00, tsmear:   1.00000000E-02, }
meta: {optdriver: 3, gwcalctyp: 0, }
...

 mkfilename : getwfk/=0, take file _WFK from output of DATASET   2.
 
 SCREENING: Calculation of the susceptibility and dielectric matrices 
 
 Based on a program developped by R.W. Godby, V. Olevano, G. Onida, and L. Reining.
 Incorporated in ABINIT by V. Olevano, G.-M. Rignanese, and M. Torrent.
.Using single precision arithmetic ; gwpc =  4
 
 Real(R)+Recip(G) space primitive vectors, cartesian coordinates (Bohr,Bohr^-1):
 R(1)=  7.9531599  0.0000000  0.0000000  G(1)=  0.1257362  0.0000000  0.0000000
 R(2)=  0.0000000  8.2733465  0.0000000  G(2)=  0.0000000  0.1208701  0.0000000
 R(3)=  0.0000000  0.0000000 85.0376760  G(3)=  0.0000000  0.0000000  0.0117595
 Unit cell volume ucvol=  5.5954151E+03 bohr^3
 Angles (23,13,12)=  9.00000000E+01  9.00000000E+01  9.00000000E+01 degrees
 
--- Pseudopotential description ------------------------------------------------
- pspini: atom type   1  psp file is ../6c.4.hgh
- pspatm: opening atomic psp file    ../6c.4.hgh
- Hartwigsen-Goedecker-Hutter psp for C,  from PRB58, 3641 (1998)
-  6.00000   4.00000     10605                znucl, zion, pspdat
    3    1    1    0      2001   0.00000      pspcod,pspxc,lmax,lloc,mmax,r2well
 rloc=   0.3488300
 cc1 =  -8.5137710; cc2 =   1.2284320; cc3 =   0.0000000; cc4 =   0.0000000
 rrs =   0.3045530; h11s=   9.5228420; h22s=   0.0000000; h33s=   0.0000000
 rrp =   0.2326770; h11p=   0.0000000; h22p=   0.0000000; h33p=   0.0000000
                    k11p=   0.0041040; k22p=   0.0000000; k33p=   0.0000000
-  Local part computed in reciprocal space.
 
 pspatm : COMMENT -
  the projectors are not normalized,
  so that the KB energies are not consistent with 
  definition in PRB44, 8503 (1991). 
  However, this does not influence the results obtained hereafter.
  pspatm : epsatm=   -0.16969744
         --- l  ekb(1:nproj) -->
             0    0.953587
 pspatm: atomic psp has been read  and splines computed
 
- pspini: atom type   2  psp file is ../1h.1.hgh
- pspatm: opening atomic psp file    ../1h.1.hgh
- Hartwigsen-Goedecker-Hutter psp for H,  from PRB58, 3641 (1998)
-  1.00000   1.00000     10605                znucl, zion, pspdat
    3    1    0    0      2001   0.00000      pspcod,pspxc,lmax,lloc,mmax,r2well
 rloc=   0.2000000
 cc1 =  -4.1802370; cc2 =   0.7250750; cc3 =   0.0000000; cc4 =   0.0000000
 rrs =   0.0000000; h11s=   0.0000000; h22s=   0.0000000; h33s=   0.0000000
-  Local part computed in reciprocal space.
 
 pspatm : COMMENT -
  the projectors are not normalized,
  so that the KB energies are not consistent with 
  definition in PRB44, 8503 (1991). 
  However, this does not influence the results obtained hereafter.
  pspatm : epsatm=   -0.00129784
         --- l  ekb(1:nproj) -->
 pspatm: atomic psp has been read  and splines computed
 
  -7.39935321E+02                                ecore*ucvol(ha*bohr**3)
--------------------------------------------------------------------------------
 
 ==== K-mesh for the wavefunctions ====
 Number of points in the irreducible wedge :    16
 Reduced coordinates and weights : 
 
     1)     0.00000000E+00  0.00000000E+00  0.00000000E+00       0.02778
     2)     1.66666667E-01  0.00000000E+00  0.00000000E+00       0.05556
     3)     3.33333333E-01  0.00000000E+00  0.00000000E+00       0.05556
     4)     5.00000000E-01  0.00000000E+00  0.00000000E+00       0.02778
     5)     0.00000000E+00  1.66666667E-01  0.00000000E+00       0.05556
     6)     1.66666667E-01  1.66666667E-01  0.00000000E+00       0.11111
     7)     3.33333333E-01  1.66666667E-01  0.00000000E+00       0.11111
     8)     5.00000000E-01  1.66666667E-01  0.00000000E+00       0.05556
     9)     0.00000000E+00  3.33333333E-01  0.00000000E+00       0.05556
    10)     1.66666667E-01  3.33333333E-01  0.00000000E+00       0.11111
    11)     3.33333333E-01  3.33333333E-01  0.00000000E+00       0.11111
    12)     5.00000000E-01  3.33333333E-01  0.00000000E+00       0.05556
    13)     0.00000000E+00  5.00000000E-01  0.00000000E+00       0.02778
    14)     1.66666667E-01  5.00000000E-01  0.00000000E+00       0.05556
    15)     3.33333333E-01  5.00000000E-01  0.00000000E+00       0.05556
    16)     5.00000000E-01  5.00000000E-01  0.00000000E+00       0.02778
 
 Together with  8 symmetry operations and time-reversal symmetry 
 yields    36 points in the full Brillouin Zone.
 
 
 ==== Q-mesh for the screening function ====
 Number of points in the irreducible wedge :    16
 Reduced coordinates and weights : 
 
     1)     0.00000000E+00  0.00000000E+00  0.00000000E+00       0.02778
     2)     1.66666667E-01  0.00000000E+00  0.00000000E+00       0.05556
     3)     3.33333333E-01  0.00000000E+00  0.00000000E+00       0.05556
     4)     5.00000000E-01  0.00000000E+00  0.00000000E+00       0.02778
     5)     0.00000000E+00  1.66666667E-01  0.00000000E+00       0.05556
     6)     1.66666667E-01  1.66666667E-01  0.00000000E+00       0.11111
     7)     3.33333333E-01  1.66666667E-01  0.00000000E+00       0.11111
     8)     5.00000000E-01  1.66666667E-01  0.00000000E+00       0.05556
     9)     0.00000000E+00  3.33333333E-01  0.00000000E+00       0.05556
    10)     1.66666667E-01  3.33333333E-01  0.00000000E+00       0.11111
    11)     3.33333333E-01  3.33333333E-01  0.00000000E+00       0.11111
    12)     5.00000000E-01  3.33333333E-01  0.00000000E+00       0.05556
    13)     0.00000000E+00  5.00000000E-01  0.00000000E+00       0.02778
    14)     1.66666667E-01  5.00000000E-01  0.00000000E+00       0.05556
    15)     3.33333333E-01  5.00000000E-01  0.00000000E+00       0.05556
    16)     5.00000000E-01  5.00000000E-01  0.00000000E+00       0.02778
 
 Together with  8 symmetry operations and time-reversal symmetry 
 yields    36 points in the full Brillouin Zone.
 
 
 setmesh: FFT mesh size selected  =    36x   36x  360
          total number of points  =       466560
 
 
- screening: taking advantage of time-reversal symmetry 
- Maximum band index for partially occupied states nbvw = 68
- Remaining bands to be divided among processors   nbcw = 1000
- Number of bands treated by each node ~10
 
 Number of electrons calculated from density =  136.0000; Expected =  136.0000
 average of density, n =  0.024306
 r_s =    2.1416
 omega_plasma =   15.0386 [eV]
 
 
 calculating chi0 at frequencies [eV] :
  1    0.000000E+00    0.000000E+00
  2    0.000000E+00    1.670000E+01
 
 
--------------------------------------------------------------------------------
  q-point number  1        q = ( 0.000000, 0.000000, 0.000000) [r.l.u.]
--------------------------------------------------------------------------------
  chi0(G,G') at the    1 th omega   0.0000   0.0000 [eV]
       1       2       3       4       5       6       7       8       9
    1  -0.000   0.000  -0.000  -0.000   0.000   0.000  -0.000  -0.000   0.000
        0.000  -0.000   0.000   0.000  -0.000   0.000  -0.000  -0.000   0.000
 
    2   0.000  -2.766   1.885   4.936  -2.016  -5.292   0.589   3.592   1.323
        0.000   0.000  -0.000   0.000  -0.000  -0.000   0.000   0.000  -0.000
 
  chi0(G,G') at the    2 th omega   0.0000  16.7000 [eV]
       1       2       3       4       5       6       7       8       9
    1  -0.000   0.000  -0.000  -0.000   0.000   0.000  -0.000  -0.000   0.000
       -0.000  -0.000   0.000  -0.000  -0.000   0.000  -0.000  -0.000   0.000
 
    2   0.000  -0.950   0.635   1.713  -0.666  -1.858   0.162   1.275   0.508
        0.000   0.000  -0.000   0.000   0.000  -0.000   0.000   0.000  -0.000
 
 For q-point:  0.000010 0.000020 0.000030
  dielectric constant =   1.0008
  dielectric constant without local fields =   1.0009
 
  Average fulfillment of the sum rule on Im[epsilon] for q-point    1 :    175.98  [%]
  Heads and wings of the symmetrical epsilon^-1(G,G') 
 
   Upper and lower wings at the    1 th omega   0.0000   0.0000 [eV]
       1       2       3       4       5       6       7       8       9
      0.999   0.001  -0.001  -0.000   0.000   0.000  -0.000   0.000  -0.000
      0.000  -0.000  -0.000   0.000  -0.000   0.000   0.000  -0.000   0.000
       1       2       3       4       5       6       7       8       9
      0.999   0.001  -0.001  -0.000   0.000   0.000  -0.000   0.000  -0.000
      0.000   0.000   0.000  -0.000   0.000  -0.000  -0.000   0.000  -0.000
 
 
   Upper and lower wings at the    2 th omega   0.0000  16.7000 [eV]
       1       2       3       4       5       6       7       8       9
      1.000   0.001  -0.001  -0.000   0.000   0.000  -0.000  -0.000   0.000
      0.000  -0.000  -0.000  -0.000  -0.000   0.000   0.000  -0.000   0.000
       1       2       3       4       5       6       7       8       9
      1.000   0.001  -0.001  -0.000   0.000   0.000  -0.000  -0.000   0.000
      0.000   0.000   0.000   0.000   0.000  -0.000  -0.000   0.000  -0.000
 
 
 
 
--------------------------------------------------------------------------------
  q-point number  2        q = ( 0.166667, 0.000000, 0.000000) [r.l.u.]
--------------------------------------------------------------------------------
  chi0(G,G') at the    1 th omega   0.0000   0.0000 [eV]
       1       2       3       4       5       6       7       8       9
    1  -9.001   8.193   8.193  -6.042  -6.042   3.247   3.247  -0.653  -0.653
        0.000   0.000  -0.000   0.000  -0.000  -0.000  -0.000   0.000  -0.000
 
    2   8.193 -11.579  -4.292  12.790   1.394 -10.952  -0.151   6.544   0.207
       -0.000   0.000   0.000   0.000  -0.000  -0.000   0.000   0.000  -0.000
 
  chi0(G,G') at the    2 th omega   0.0000  16.7000 [eV]
       1       2       3       4       5       6       7       8       9
    1  -3.010   2.736   2.736  -2.003  -2.003   1.051   1.051  -0.170  -0.170
        0.000   0.000  -0.000   0.000  -0.000  -0.000  -0.000   0.000  -0.000
 
    2   2.736  -3.929  -1.390   4.390   0.411  -3.796  -0.019   2.278   0.083
       -0.000   0.000   0.000   0.000  -0.000  -0.000   0.000   0.000  -0.000
 
  Average fulfillment of the sum rule on Im[epsilon] for q-point    2 :     87.23  [%]
 
 
--------------------------------------------------------------------------------
  q-point number  3        q = ( 0.333333, 0.000000, 0.000000) [r.l.u.]
--------------------------------------------------------------------------------
  chi0(G,G') at the    1 th omega   0.0000   0.0000 [eV]
       1       2       3       4       5       6       7       8       9
    1 -30.298  27.568  27.568 -20.292 -20.292  10.840  10.840  -2.065  -2.065
        0.000   0.000  -0.000  -0.000  -0.000   0.000  -0.000   0.000  -0.000
 
    2  27.568 -32.513 -18.799  31.507   9.285 -24.469  -1.700  13.585  -2.611
       -0.000   0.000   0.000   0.000  -0.000  -0.000   0.000   0.000  -0.000
 
  chi0(G,G') at the    2 th omega   0.0000  16.7000 [eV]
       1       2       3       4       5       6       7       8       9
    1 -11.300  10.265  10.265  -7.509  -7.509   3.932   3.932  -0.622  -0.622
        0.000   0.000  -0.000   0.000  -0.000   0.000  -0.000   0.000  -0.000
 
    2  10.265 -12.134  -6.954  11.768   3.357  -9.133  -0.496   5.033  -1.099
       -0.000   0.000   0.000   0.000  -0.000  -0.000   0.000   0.000  -0.000
 
  Average fulfillment of the sum rule on Im[epsilon] for q-point    3 :     83.48  [%]
 
 
--------------------------------------------------------------------------------
  q-point number  4        q = ( 0.500000, 0.000000, 0.000000) [r.l.u.]
--------------------------------------------------------------------------------
  chi0(G,G') at the    1 th omega   0.0000   0.0000 [eV]
       1       2       3       4       5       6       7       8       9
    1 -54.334  49.406  49.406 -36.279 -36.279  19.229  19.229  -3.417  -3.417
        0.000   0.000  -0.000  -0.000  -0.000   0.000  -0.000   0.000  -0.000
 
    2  49.406 -56.228 -35.004  52.769  17.912 -39.826  -3.130  21.528  -6.059
       -0.000   0.000   0.000   0.000   0.000  -0.000   0.000   0.000  -0.000
 
  chi0(G,G') at the    2 th omega   0.0000  16.7000 [eV]
       1       2       3       4       5       6       7       8       9
    1 -23.072  20.952  20.952 -15.309 -15.309   7.989   7.989  -1.226  -1.226
        0.000   0.000  -0.000  -0.000  -0.000   0.000  -0.000   0.000  -0.000
 
    2  20.952 -23.797 -14.829  22.257   7.497 -16.713  -1.129   8.932  -2.808
       -0.000   0.000   0.000   0.000   0.000  -0.000   0.000   0.000  -0.000
 
  Average fulfillment of the sum rule on Im[epsilon] for q-point    4 :     82.48  [%]
 
 
--------------------------------------------------------------------------------
  q-point number  5        q = ( 0.000000, 0.166667, 0.000000) [r.l.u.]
--------------------------------------------------------------------------------
  chi0(G,G') at the    1 th omega   0.0000   0.0000 [eV]
       1       2       3       4       5       6       7       8       9
    1  -8.016   7.277   7.277  -5.318  -5.318   2.793   2.793  -0.483  -0.483
        0.000   0.000  -0.000  -0.000  -0.000  -0.000  -0.000   0.000  -0.000
 
    2   7.277 -10.537  -3.612  11.771   0.996 -10.111  -0.018   5.996   0.271
       -0.000   0.000   0.000   0.000   0.000  -0.000   0.000   0.000  -0.000
 
  chi0(G,G') at the    2 th omega   0.0000  16.7000 [eV]
       1       2       3       4       5       6       7       8       9
    1  -2.774   2.519   2.519  -1.840  -1.840   0.962   0.962  -0.152  -0.152
        0.000   0.000  -0.000  -0.000  -0.000  -0.000  -0.000   0.000   0.000
 
    2   2.519  -3.690  -1.229   4.169   0.324  -3.628  -0.002   2.184   0.117
       -0.000   0.000   0.000   0.000  -0.000  -0.000   0.000   0.000  -0.000
 
  Average fulfillment of the sum rule on Im[epsilon] for q-point    5 :     87.47  [%]
 
 
--------------------------------------------------------------------------------
  q-point number  6        q = ( 0.166667, 0.166667, 0.000000) [r.l.u.]
--------------------------------------------------------------------------------
  chi0(G,G') at the    1 th omega   0.0000   0.0000 [eV]
       1       2       3       4       5       6       7       8       9
    1 -16.459  14.961  14.961 -10.975 -10.975   5.820   5.820  -1.071  -1.071
        0.000   0.000  -0.000  -0.000  -0.000   0.000  -0.000   0.000  -0.000
 
    2  14.961 -18.809  -9.392  19.144   4.172 -15.420  -0.684   8.754  -0.801
       -0.000   0.000   0.000   0.000  -0.000  -0.000   0.000   0.000  -0.000
 
  chi0(G,G') at the    2 th omega   0.0000  16.7000 [eV]
       1       2       3       4       5       6       7       8       9
    1  -5.689   5.168   5.168  -3.779  -3.779   1.977   1.977  -0.313  -0.313
        0.000   0.000  -0.000  -0.000  -0.000   0.000  -0.000   0.000  -0.000
 
    2   5.168  -6.575  -3.189   6.763   1.364  -5.505  -0.173   3.154  -0.297
       -0.000   0.000   0.000   0.000  -0.000  -0.000   0.000   0.000  -0.000
 
  Average fulfillment of the sum rule on Im[epsilon] for q-point    6 :     85.39  [%]
 
 
--------------------------------------------------------------------------------
  q-point number  7        q = ( 0.333333, 0.166667, 0.000000) [r.l.u.]
--------------------------------------------------------------------------------
  chi0(G,G') at the    1 th omega   0.0000   0.0000 [eV]
       1       2       3       4       5       6       7       8       9
    1 -36.681  33.351  33.351 -24.489 -24.489  12.999  12.999  -2.374  -2.374
        0.000   0.000  -0.000  -0.000  -0.000   0.000  -0.000   0.000  -0.000
 
    2  33.351 -38.691 -23.145  36.922  11.627 -28.250  -2.112  15.421  -3.512
       -0.000   0.000   0.000   0.000  -0.000  -0.000   0.000   0.000  -0.000
 
  chi0(G,G') at the    2 th omega   0.0000  16.7000 [eV]
       1       2       3       4       5       6       7       8       9
    1 -13.730  12.471  12.471  -9.117  -9.117   4.766   4.766  -0.745  -0.745
        0.000   0.000  -0.000  -0.000  -0.000   0.000  -0.000   0.000  -0.000
 
    2  12.471 -14.535  -8.582  13.920   4.215 -10.681  -0.629   5.823  -1.450
       -0.000   0.000   0.000   0.000  -0.000  -0.000   0.000   0.000  -0.000
 
  Average fulfillment of the sum rule on Im[epsilon] for q-point    7 :     83.01  [%]
 
 
--------------------------------------------------------------------------------
  q-point number  8        q = ( 0.500000, 0.166667, 0.000000) [r.l.u.]
--------------------------------------------------------------------------------
  chi0(G,G') at the    1 th omega   0.0000   0.0000 [eV]
       1       2       3       4       5       6       7       8       9
    1 -59.785  54.342  54.342 -39.849 -39.849  21.050  21.050  -3.658  -3.658
        0.000   0.000  -0.000  -0.000  -0.000   0.000  -0.000  -0.000  -0.000
 
    2  54.342 -61.494 -38.711  57.369  19.900 -43.018  -3.465  23.055  -6.843
       -0.000   0.000   0.000   0.000  -0.000  -0.000   0.000   0.000  -0.000
 
  chi0(G,G') at the    2 th omega   0.0000  16.7000 [eV]
       1       2       3       4       5       6       7       8       9
    1 -25.180  22.864  22.864 -16.698 -16.698   8.705   8.705  -1.325  -1.325
        0.000   0.000  -0.000  -0.000  -0.000   0.000  -0.000   0.000  -0.000
 
    2  22.864 -25.880 -16.236  24.123   8.233 -18.053  -1.236   9.612  -3.117
       -0.000   0.000   0.000   0.000  -0.000  -0.000   0.000   0.000  -0.000
 
  Average fulfillment of the sum rule on Im[epsilon] for q-point    8 :     82.26  [%]
 
 
--------------------------------------------------------------------------------
  q-point number  9        q = ( 0.000000, 0.333333, 0.000000) [r.l.u.]
--------------------------------------------------------------------------------
  chi0(G,G') at the    1 th omega   0.0000   0.0000 [eV]
       1       2       3       4       5       6       7       8       9
    1 -27.903  25.333  25.333 -18.509 -18.509   9.707   9.707  -1.645  -1.645
        0.000   0.000  -0.000  -0.000  -0.000   0.000  -0.000   0.000  -0.000
 
    2  25.333 -29.941 -17.147  28.954   8.315 -22.328  -1.371  12.175  -2.448
       -0.000   0.000   0.000   0.000   0.000  -0.000   0.000   0.000  -0.000
 
  chi0(G,G') at the    2 th omega   0.0000  16.7000 [eV]
       1       2       3       4       5       6       7       8       9
    1 -10.500   9.533   9.533  -6.960  -6.960   3.629   3.629  -0.561  -0.561
        0.000   0.000  -0.000  -0.000  -0.000   0.000  -0.000   0.000  -0.000
 
    2   9.533 -11.326  -6.411  11.020   3.063  -8.566  -0.440   4.716  -0.985
       -0.000   0.000   0.000   0.000   0.000  -0.000   0.000   0.000  -0.000
 
  Average fulfillment of the sum rule on Im[epsilon] for q-point    9 :     83.72  [%]
 
 
--------------------------------------------------------------------------------
  q-point number 10        q = ( 0.166667, 0.333333, 0.000000) [r.l.u.]
--------------------------------------------------------------------------------
  chi0(G,G') at the    1 th omega   0.0000   0.0000 [eV]
       1       2       3       4       5       6       7       8       9
    1 -34.941  31.730  31.730 -23.198 -23.198  12.183  12.183  -2.074  -2.074
        0.000   0.000  -0.000  -0.000  -0.000   0.000  -0.000   0.000  -0.000
 
    2  31.730 -36.845 -21.932  35.108  10.903 -26.745  -1.856  14.442  -3.403
       -0.000   0.000   0.000   0.000  -0.000  -0.000   0.000   0.000  -0.000
 
  chi0(G,G') at the    2 th omega   0.0000  16.7000 [eV]
       1       2       3       4       5       6       7       8       9
    1 -13.156  11.945  11.945  -8.722  -8.722   4.548   4.548  -0.701  -0.701
        0.000   0.000  -0.000  -0.000  -0.000   0.000  -0.000   0.000  -0.000
 
    2  11.945 -13.955  -8.192  13.384   4.003 -10.274  -0.588   5.596  -1.368
       -0.000   0.000   0.000   0.000  -0.000  -0.000   0.000   0.000  -0.000
 
  Average fulfillment of the sum rule on Im[epsilon] for q-point   10 :     83.14  [%]
 
 
--------------------------------------------------------------------------------
  q-point number 11        q = ( 0.333333, 0.333333, 0.000000) [r.l.u.]
--------------------------------------------------------------------------------
  chi0(G,G') at the    1 th omega   0.0000   0.0000 [eV]
       1       2       3       4       5       6       7       8       9
    1 -52.356  47.556  47.556 -34.793 -34.793  18.287  18.287  -3.099  -3.099
        0.000   0.000  -0.000  -0.000  -0.000   0.000  -0.000   0.000  -0.000
 
    2  47.556 -53.981 -33.721  50.430  17.231 -37.779  -2.977  20.130  -5.831
       -0.000   0.000   0.000   0.000  -0.000  -0.000   0.000   0.000  -0.000
 
  chi0(G,G') at the    2 th omega   0.0000  16.7000 [eV]
       1       2       3       4       5       6       7       8       9
    1 -20.515  18.626  18.626 -13.599 -13.599   7.085   7.085  -1.078  -1.078
        0.000   0.000  -0.000  -0.000  -0.000   0.000  -0.000   0.000  -0.000
 
    2  18.626 -21.244 -13.117  19.937   6.594 -15.009  -0.986   8.029  -2.437
       -0.000   0.000   0.000   0.000  -0.000  -0.000   0.000   0.000  -0.000
 
  Average fulfillment of the sum rule on Im[epsilon] for q-point   11 :     82.19  [%]
 
 
--------------------------------------------------------------------------------
  q-point number 12        q = ( 0.500000, 0.333333, 0.000000) [r.l.u.]
--------------------------------------------------------------------------------
  chi0(G,G') at the    1 th omega   0.0000   0.0000 [eV]
       1       2       3       4       5       6       7       8       9
    1 -72.984  66.291  66.291 -48.487 -48.487  25.439  25.439  -4.199  -4.199
        0.000   0.000  -0.000  -0.000  -0.000   0.000  -0.000   0.000  -0.000
 
    2  66.291 -74.351 -47.590  68.700  24.569 -50.968  -4.130  26.930  -8.847
       -0.000   0.000   0.000   0.000  -0.000  -0.000   0.000   0.000  -0.000
 
  chi0(G,G') at the    2 th omega   0.0000  16.7000 [eV]
       1       2       3       4       5       6       7       8       9
    1 -31.073  28.207  28.207 -20.580 -20.580  10.701  10.701  -1.595  -1.595
        0.000   0.000  -0.000   0.000  -0.000   0.000  -0.000  -0.000  -0.000
 
    2  28.207 -31.707 -20.163  29.348  10.279 -21.804  -1.524  11.512  -3.989
       -0.000   0.000   0.000   0.000  -0.000  -0.000   0.000   0.000  -0.000
 
  Average fulfillment of the sum rule on Im[epsilon] for q-point   12 :     81.85  [%]
 
 
--------------------------------------------------------------------------------
  q-point number 13        q = ( 0.000000, 0.500000, 0.000000) [r.l.u.]
--------------------------------------------------------------------------------
  chi0(G,G') at the    1 th omega   0.0000   0.0000 [eV]
       1       2       3       4       5       6       7       8       9
    1 -52.011  47.216  47.216 -34.476 -34.476  18.031  18.031  -2.949  -2.949
        0.000   0.000  -0.000  -0.000  -0.000   0.000  -0.000   0.000   0.000
 
    2  47.216 -53.627 -33.403  50.077  16.952 -37.465  -2.776  19.911  -5.915
       -0.000   0.000   0.000   0.000  -0.000  -0.000   0.000   0.000  -0.000
 
  chi0(G,G') at the    2 th omega   0.0000  16.7000 [eV]
       1       2       3       4       5       6       7       8       9
    1 -21.694  19.691  19.691 -14.363 -14.363   7.468   7.468  -1.122  -1.122
        0.000   0.000  -0.000  -0.000  -0.000   0.000  -0.000   0.000  -0.000
 
    2  19.691 -22.403 -13.895  20.967   6.991 -15.735  -1.033   8.384  -2.610
       -0.000   0.000   0.000   0.000   0.000  -0.000   0.000   0.000  -0.000
 
  Average fulfillment of the sum rule on Im[epsilon] for q-point   13 :     82.69  [%]
 
 
--------------------------------------------------------------------------------
  q-point number 14        q = ( 0.166667, 0.500000, 0.000000) [r.l.u.]
--------------------------------------------------------------------------------
  chi0(G,G') at the    1 th omega   0.0000   0.0000 [eV]
       1       2       3       4       5       6       7       8       9
    1 -57.337  52.046  52.046 -37.990 -37.990  19.843  19.843  -3.197  -3.197
        0.000   0.000  -0.000  -0.000  -0.000   0.000  -0.000   0.000  -0.000
 
    2  52.046 -58.860 -36.982  54.741  18.840 -40.793  -3.059  21.583  -6.711
       -0.000   0.000   0.000   0.000  -0.000  -0.000   0.000   0.000  -0.000
 
  chi0(G,G') at the    2 th omega   0.0000  16.7000 [eV]
       1       2       3       4       5       6       7       8       9
    1 -23.989  21.774  21.774 -15.881 -15.881   8.254   8.254  -1.233  -1.233
        0.000   0.000  -0.000  -0.000  -0.000   0.000  -0.000   0.000  -0.000
 
    2  21.774 -24.676 -15.428  23.010   7.793 -17.208  -1.151   9.138  -2.948
       -0.000   0.000   0.000   0.000  -0.000  -0.000   0.000   0.000  -0.000
 
  Average fulfillment of the sum rule on Im[epsilon] for q-point   14 :     82.41  [%]
 
 
--------------------------------------------------------------------------------
  q-point number 15        q = ( 0.333333, 0.500000, 0.000000) [r.l.u.]
--------------------------------------------------------------------------------
  chi0(G,G') at the    1 th omega   0.0000   0.0000 [eV]
       1       2       3       4       5       6       7       8       9
    1 -71.133  64.567  64.567 -47.115 -47.115  24.571  24.571  -3.875  -3.875
        0.000   0.000  -0.000  -0.000  -0.000   0.000  -0.000   0.000  -0.000
 
    2  64.567 -72.450 -46.251  66.887  23.730 -49.504  -3.801  26.008  -8.759
       -0.000   0.000   0.000   0.000  -0.000  -0.000   0.000   0.000  -0.000
 
  chi0(G,G') at the    2 th omega   0.0000  16.7000 [eV]
       1       2       3       4       5       6       7       8       9
    1 -30.390  27.581  27.582 -20.110 -20.110  10.439  10.439  -1.538  -1.538
        0.000   0.000  -0.000  -0.000  -0.000   0.000  -0.000   0.000  -0.000
 
    2  27.581 -31.018 -19.697  28.711  10.023 -21.320  -1.471  11.240  -3.896
[...]
                       0.000000  0.000000  0.000000  0.000000  0.000000  0.000000
                       0.000000  0.000000  0.000000  0.000000  0.000000  0.000000
                       0.000000  0.000000  0.000000  0.000000  0.000000  0.000000
                       0.000000  0.000000  0.000000  0.000000  0.000000  0.000000
                       0.000000  0.000000  0.000000  0.000000  0.000000  0.000000
                       0.000000  0.000000  0.000000  0.000000  0.000000  0.000000
                       0.000000  0.000000  0.000000  0.000000  0.000000  0.000000
                       0.000000  0.000000  0.000000  0.000000  0.000000  0.000000
                       0.000000  0.000000  0.000000  0.000000  0.000000  0.000000
                       0.000000  0.000000  0.000000  0.000000  0.000000  0.000000
                       0.000000  0.000000  0.000000  0.000000  0.000000  0.000000
                       0.000000  0.000000  0.000000  0.000000  0.000000  0.000000
                       0.000000  0.000000  0.000000  0.000000  0.000000  0.000000
                       0.000000  0.000000  0.000000  0.000000  0.000000  0.000000
                       0.000000  0.000000  0.000000  0.000000  0.000000  0.000000
                       0.000000  0.000000  0.000000  0.000000  0.000000  0.000000
                       0.000000  0.000000  0.000000  0.000000  0.000000  0.000000
                       0.000000  0.000000  0.000000  0.000000  0.000000  0.000000
                       0.000000  0.000000  0.000000  0.000000  0.000000  0.000000
                       0.000000  0.000000  0.000000  0.000000  0.000000  0.000000
                       0.000000  0.000000  0.000000  0.000000  0.000000  0.000000
                       0.000000  0.000000  0.000000  0.000000  0.000000  0.000000
                       0.000000  0.000000  0.000000  0.000000  0.000000  0.000000
                       0.000000  0.000000  0.000000  0.000000  0.000000  0.000000
                       0.000000  0.000000  0.000000  0.000000  0.000000  0.000000
                       0.000000  0.000000  0.000000  0.000000  0.000000  0.000000
                       0.000000  0.000000  0.000000  0.000000  0.000000  0.000000
                       0.000000  0.000000  0.000000  0.000000  0.000000  0.000000
                       0.000000  0.000000  0.000000  0.000000  0.000000  0.000000
                       0.000000  0.000000  0.000000  0.000000  0.000000  0.000000
                       0.000000  0.000000  0.000000  0.000000  0.000000  0.000000
                       0.000000  0.000000  0.000000  0.000000  0.000000  0.000000
                       0.000000  0.000000  0.000000  0.000000  0.000000  0.000000
                       0.000000  0.000000  0.000000  0.000000  0.000000  0.000000
                       0.000000  0.000000  0.000000  0.000000  0.000000  0.000000
                       0.000000  0.000000  0.000000  0.000000  0.000000  0.000000
                       0.000000  0.000000  0.000000  0.000000  0.000000  0.000000
                       0.000000  0.000000  0.000000  0.000000  0.000000  0.000000
        optdriver3          3
        optdriver4          4
           ppmfrq3     6.13713734E-01 Hartree
           ppmfrq4     0.00000000E+00 Hartree
          spgroup          57
           strten3     0.0000000000E+00  0.0000000000E+00  0.0000000000E+00
                       0.0000000000E+00  0.0000000000E+00  0.0000000000E+00
           strten4     0.0000000000E+00  0.0000000000E+00  0.0000000000E+00
                       0.0000000000E+00  0.0000000000E+00  0.0000000000E+00
           symrel      1  0  0   0  1  0   0  0  1      -1  0  0   0 -1  0   0  0 -1
                      -1  0  0   0  1  0   0  0 -1       1  0  0   0 -1  0   0  0  1
                      -1  0  0   0 -1  0   0  0  1       1  0  0   0  1  0   0  0 -1
                       1  0  0   0 -1  0   0  0 -1      -1  0  0   0  1  0   0  0  1
            tnons      0.0000000  0.0000000  0.0000000     0.0000000 -0.0000000 -0.0000000
                       0.5000000  0.5000000 -0.0000000     0.5000000  0.5000000  0.0000000
                       0.0000000  0.5000000  0.0000000     0.0000000  0.5000000 -0.0000000
                       0.5000000 -0.0000000 -0.0000000     0.5000000  0.0000000  0.0000000
           toldfe      1.00000000E-08 Hartree
           tolsym      1.00000000E-04
            typat      1  1  1  1  1  1  1  1  1  1  1  1  1  1  1  1  1  1  1  1
                       1  1  1  1  1  1  1  1  1  1  1  1  2  2  2  2  2  2  2  2
          usekden           1
          vcutgeo      1.0000000  1.0000000  0.0000000
              wtk        0.02778    0.05556    0.05556    0.02778    0.05556    0.11111
                         0.11111    0.05556    0.05556    0.11111    0.11111    0.05556
                         0.02778    0.05556    0.05556    0.02778
           xangst      3.9281266812E+00  1.8036990759E+00  1.8132736230E+01
                       2.8050427046E-01  2.5743673431E+00  2.6867263770E+01
                       1.8238112054E+00  2.5743673431E+00  2.6867263770E+01
                       2.3848197463E+00  1.8036990759E+00  1.8132736230E+01
                       2.3848197463E+00  3.9927322854E+00  2.6867263770E+01
                       1.8238112054E+00  3.8533413363E-01  1.8132736230E+01
                       2.8050427046E-01  3.8533413363E-01  1.8132736230E+01
                       3.9281266812E+00  3.9927322854E+00  2.6867263770E+01
                       3.9454632820E+00  1.8251400546E+00  2.0616632883E+01
                       2.6316766965E-01  2.5529263644E+00  2.4383367117E+01
                       1.8411478062E+00  2.5529263644E+00  2.4383367117E+01
                       2.3674831455E+00  1.8251400546E+00  2.0616632883E+01
                       2.3674831455E+00  4.0141732641E+00  2.4383367117E+01
                       1.8411478062E+00  3.6389315488E-01  2.0616632883E+01
                       2.6316766965E-01  3.6389315488E-01  2.0616632883E+01
                       3.9454632820E+00  4.0141732641E+00  2.4383367117E+01
                       3.9447173734E+00  1.8238860206E+00  2.3127749280E+01
                       2.6391357828E-01  2.5541803984E+00  2.1872250720E+01
                       1.8404018975E+00  2.5541803984E+00  2.1872250720E+01
                       2.3682290541E+00  1.8238860206E+00  2.3127749280E+01
                       2.3682290541E+00  4.0129192301E+00  2.1872250720E+01
                       1.8404018975E+00  3.6514718892E-01  2.3127749280E+01
                       2.6391357828E-01  3.6514718892E-01  2.3127749280E+01
                       3.9447173734E+00  4.0129192301E+00  2.1872250720E+01
                       3.9440471637E+00  1.8208925985E+00  2.5642682398E+01
                       2.6458378795E-01  2.5571738205E+00  1.9357317602E+01
                       1.8397316879E+00  2.5571738205E+00  1.9357317602E+01
                       2.3688992638E+00  1.8208925985E+00  2.5642682398E+01
                       2.3688992638E+00  4.0099258080E+00  1.9357317602E+01
                       1.8397316879E+00  3.6814061102E-01  2.5642682398E+01
                       2.6458378795E-01  3.6814061102E-01  2.5642682398E+01
                       3.9440471637E+00  4.0099258080E+00  1.9357317602E+01
                       4.1510888202E+00  2.0757484229E+00  2.7783050658E+01
                       5.7542131487E-02  2.3023179961E+00  1.7216949342E+01
                       2.0467733443E+00  2.3023179961E+00  1.7216949342E+01
                       2.1618576073E+00  2.0757484229E+00  2.7783050658E+01
                       2.1618576073E+00  4.2647816324E+00  1.7216949342E+01
                       2.0467733443E+00  1.1328478664E-01  2.7783050658E+01
                       5.7542131487E-02  1.1328478664E-01  2.7783050658E+01
                       4.1510888202E+00  4.2647816324E+00  1.7216949342E+01
            xcart      7.4230836427E+00  3.4084972795E+00  3.4265905515E+01
                       5.3007625028E-01  4.8648492440E+00  5.0771770465E+01
                       3.4465036962E+00  4.8648492440E+00  5.0771770465E+01
                       4.5066561968E+00  3.4084972795E+00  3.4265905515E+01
                       4.5066561968E+00  7.5451705413E+00  5.0771770465E+01
                       3.4465036962E+00  7.2817598220E-01  3.4265905515E+01
                       5.3007625028E-01  7.2817598220E-01  3.4265905515E+01
                       7.4230836427E+00  7.5451705413E+00  5.0771770465E+01
                       7.4558450703E+00  3.4490148574E+00  3.8959789930E+01
                       4.9731482267E-01  4.8243316661E+00  4.6077886050E+01
                       3.4792651238E+00  4.8243316661E+00  4.6077886050E+01
                       4.4738947692E+00  3.4490148574E+00  3.8959789930E+01
                       4.4738947692E+00  7.5856881191E+00  4.6077886050E+01
                       3.4792651238E+00  6.8765840436E-01  3.8959789930E+01
                       4.9731482267E-01  6.8765840436E-01  3.8959789930E+01
                       7.4558450703E+00  7.5856881191E+00  4.6077886050E+01
                       7.4544355073E+00  3.4466450765E+00  4.3705112209E+01
                       4.9872438570E-01  4.8267014470E+00  4.1332563771E+01
                       3.4778555608E+00  4.8267014470E+00  4.1332563771E+01
                       4.4753043322E+00  3.4466450765E+00  4.3705112209E+01
                       4.4753043322E+00  7.5833183382E+00  4.1332563771E+01
                       3.4778555608E+00  6.9002818525E-01  4.3705112209E+01
                       4.9872438570E-01  6.9002818525E-01  4.3705112209E+01
                       7.4544355073E+00  7.5833183382E+00  4.1332563771E+01
                       7.4531689946E+00  3.4409883285E+00  4.8457647045E+01
                       4.9999089842E-01  4.8323581950E+00  3.6580028935E+01
                       3.4765890481E+00  4.8323581950E+00  3.6580028935E+01
                       4.4765708449E+00  3.4409883285E+00  4.8457647045E+01
                       4.4765708449E+00  7.5776615903E+00  3.6580028935E+01
                       3.4765890481E+00  6.9568493321E-01  4.8457647045E+01
                       4.9999089842E-01  6.9568493321E-01  4.8457647045E+01
                       7.4531689946E+00  7.5776615903E+00  3.6580028935E+01
                       7.8444210234E+00  3.9225960400E+00  5.2502356880E+01
                       1.0873886961E-01  4.3507504835E+00  3.2535319100E+01
                       3.8678410769E+00  4.3507504835E+00  3.2535319100E+01
                       4.0853188161E+00  3.9225960400E+00  5.2502356880E+01
                       4.0853188161E+00  8.0592693017E+00  3.2535319100E+01
                       3.8678410769E+00  2.1407722177E-01  5.2502356880E+01
                       1.0873886961E-01  2.1407722177E-01  5.2502356880E+01
                       7.8444210234E+00  8.0592693017E+00  3.2535319100E+01
             xred      9.3335023344E-01  4.1198531572E-01  4.0294969401E-01
                       6.6649766560E-02  5.8801468428E-01  5.9705030599E-01
                       4.3335023344E-01  5.8801468428E-01  5.9705030599E-01
                       5.6664976656E-01  4.1198531572E-01  4.0294969401E-01
                       5.6664976656E-01  9.1198531572E-01  5.9705030599E-01
                       4.3335023344E-01  8.8014684280E-02  4.0294969401E-01
                       6.6649766560E-02  8.8014684280E-02  4.0294969401E-01
                       9.3335023344E-01  9.1198531572E-01  5.9705030599E-01
                       9.3746953043E-01  4.1688267832E-01  4.5814739739E-01
                       6.2530469570E-02  5.8311732168E-01  5.4185260261E-01
                       4.3746953043E-01  5.8311732168E-01  5.4185260261E-01
                       5.6253046957E-01  4.1688267832E-01  4.5814739739E-01
                       5.6253046957E-01  9.1688267832E-01  5.4185260261E-01
                       4.3746953043E-01  8.3117321680E-02  4.5814739739E-01
                       6.2530469570E-02  8.3117321680E-02  4.5814739739E-01
                       9.3746953043E-01  9.1688267832E-01  5.4185260261E-01
                       9.3729229735E-01  4.1659624273E-01  5.1394998400E-01
                       6.2707702650E-02  5.8340375727E-01  4.8605001600E-01
                       4.3729229735E-01  5.8340375727E-01  4.8605001600E-01
                       5.6270770265E-01  4.1659624273E-01  5.1394998400E-01
                       5.6270770265E-01  9.1659624273E-01  4.8605001600E-01
                       4.3729229735E-01  8.3403757269E-02  5.1394998400E-01
                       6.2707702650E-02  8.3403757269E-02  5.1394998400E-01
                       9.3729229735E-01  9.1659624273E-01  4.8605001600E-01
                       9.3713305087E-01  4.1591251119E-01  5.6983738662E-01
                       6.2866949130E-02  5.8408748881E-01  4.3016261338E-01
                       4.3713305087E-01  5.8408748881E-01  4.3016261338E-01
                       5.6286694913E-01  4.1591251119E-01  5.6983738662E-01
                       5.6286694913E-01  9.1591251119E-01  4.3016261338E-01
                       4.3713305087E-01  8.4087488810E-02  5.6983738662E-01
                       6.2866949130E-02  8.4087488810E-02  5.6983738662E-01
                       9.3713305087E-01  9.1591251119E-01  4.3016261338E-01
                       9.8632758915E-01  4.7412447053E-01  6.1740112573E-01
                       1.3672410850E-02  5.2587552947E-01  3.8259887427E-01
                       4.8632758915E-01  5.2587552947E-01  3.8259887427E-01
                       5.1367241085E-01  4.7412447053E-01  6.1740112573E-01
                       5.1367241085E-01  9.7412447053E-01  3.8259887427E-01
                       4.8632758915E-01  2.5875529468E-02  6.1740112573E-01
                       1.3672410850E-02  2.5875529468E-02  6.1740112573E-01
                       9.8632758915E-01  9.7412447053E-01  3.8259887427E-01
            znucl        6.00000    1.00000
 
================================================================================


- Timing analysis has been suppressed with timopt=0



================================================================================

 Suggested references for the acknowledgment of ABINIT usage.

 The users of ABINIT have little formal obligations with respect to the ABINIT group
 (those specified in the GNU General Public License, http://www.gnu.org/copyleft/gpl.txt).
 However, it is common practice in the scientific literature,
 to acknowledge the efforts of people that have made the research possible.
 In this spirit, please find below suggested citations of work written by ABINIT developers,
 corresponding to implementations inside of ABINIT that you have used in the present run.
 Note also that it will be of great value to readers of publications presenting these results,
 to read papers enabling them to understand the theoretical formalism and details
 of the ABINIT implementation.
 For information on why they are suggested, see also https://docs.abinit.org/theory/acknowledgments.
-
- [1] Libxc: A library of exchange and correlation functionals for density functional theory.
- M.A.L. Marques, M.J.T. Oliveira, T. Burnus, Computer Physics Communications 183, 2227 (2012).
- Comment: to be cited when LibXC is used (negative value of ixc)
- Strong suggestion to cite this paper.
- DOI and bibtex: see https://docs.abinit.org/theory/bibliography/#marques2012
-
- [2] The Abinit project: Impact, environment and recent developments.
- Computer Phys. Comm. 248, 107042 (2020).
- X.Gonze, B. Amadon, G. Antonius, F.Arnardi, L.Baguet, J.-M.Beuken,
- J.Bieder, F.Bottin, J.Bouchet, E.Bousquet, N.Brouwer, F.Bruneval,
- G.Brunin, T.Cavignac, J.-B. Charraud, Wei Chen, M.Cote, S.Cottenier,
- J.Denier, G.Geneste, Ph.Ghosez, M.Giantomassi, Y.Gillet, O.Gingras,
- D.R.Hamann, G.Hautier, Xu He, N.Helbig, N.Holzwarth, Y.Jia, F.Jollet,
- W.Lafargue-Dit-Hauret, K.Lejaeghere, M.A.L.Marques, A.Martin, C.Martins,
- H.P.C. Miranda, F.Naccarato, K. Persson, G.Petretto, V.Planes, Y.Pouillon,
- S.Prokhorenko, F.Ricci, G.-M.Rignanese, A.H.Romero, M.M.Schmitt, M.Torrent,
- M.J.van Setten, B.Van Troeye, M.J.Verstraete, G.Zerah and J.W.Zwanzig
- Comment: the fifth generic paper describing the ABINIT project.
- Note that a version of this paper, that is not formatted for Computer Phys. Comm. 
- is available at https://www.abinit.org/sites/default/files/ABINIT20.pdf .
- The licence allows the authors to put it on the Web.
- DOI and bibtex: see https://docs.abinit.org/theory/bibliography/#gonze2020
-
- [3] ABINIT: Overview, and focus on selected capabilities
- J. Chem. Phys. 152, 124102 (2020).
- A. Romero, D.C. Allan, B. Amadon, G. Antonius, T. Applencourt, L.Baguet,
- J.Bieder, F.Bottin, J.Bouchet, E.Bousquet, F.Bruneval,
- G.Brunin, D.Caliste, M.Cote,
- J.Denier, C. Dreyer, Ph.Ghosez, M.Giantomassi, Y.Gillet, O.Gingras,
- D.R.Hamann, G.Hautier, F.Jollet, G. Jomard,
- A.Martin, 
- H.P.C. Miranda, F.Naccarato, G.Petretto, N.A. Pike, V.Planes,
- S.Prokhorenko, T. Rangel, F.Ricci, G.-M.Rignanese, M.Royo, M.Stengel, M.Torrent,
- M.J.van Setten, B.Van Troeye, M.J.Verstraete, J.Wiktor, J.W.Zwanziger, and X.Gonze.
- Comment: a global overview of ABINIT, with focus on selected capabilities .
- Note that a version of this paper, that is not formatted for J. Chem. Phys 
- is available at https://www.abinit.org/sites/default/files/ABINIT20_JPC.pdf .
- The licence allows the authors to put it on the Web.
- DOI and bibtex: see https://docs.abinit.org/theory/bibliography/#romero2020
-
- [4] Recent developments in the ABINIT software package.
- Computer Phys. Comm. 205, 106 (2016).
- X.Gonze, F.Jollet, F.Abreu Araujo, D.Adams, B.Amadon, T.Applencourt,
- C.Audouze, J.-M.Beuken, J.Bieder, A.Bokhanchuk, E.Bousquet, F.Bruneval
- D.Caliste, M.Cote, F.Dahm, F.Da Pieve, M.Delaveau, M.Di Gennaro,
- B.Dorado, C.Espejo, G.Geneste, L.Genovese, A.Gerossier, M.Giantomassi,
- Y.Gillet, D.R.Hamann, L.He, G.Jomard, J.Laflamme Janssen, S.Le Roux,
- A.Levitt, A.Lherbier, F.Liu, I.Lukacevic, A.Martin, C.Martins,
- M.J.T.Oliveira, S.Ponce, Y.Pouillon, T.Rangel, G.-M.Rignanese,
- A.H.Romero, B.Rousseau, O.Rubel, A.A.Shukri, M.Stankovski, M.Torrent,
- M.J.Van Setten, B.Van Troeye, M.J.Verstraete, D.Waroquier, J.Wiktor,
- B.Xu, A.Zhou, J.W.Zwanziger.
- Comment: the fourth generic paper describing the ABINIT project.
- Note that a version of this paper, that is not formatted for Computer Phys. Comm. 
- is available at https://www.abinit.org/sites/default/files/ABINIT16.pdf .
- The licence allows the authors to put it on the Web.
- DOI and bibtex: see https://docs.abinit.org/theory/bibliography/#gonze2016
-
- And optionally:
-
- [5] ABINIT: First-principles approach of materials and nanosystem properties.
- Computer Phys. Comm. 180, 2582-2615 (2009).
- X. Gonze, B. Amadon, P.-M. Anglade, J.-M. Beuken, F. Bottin, P. Boulanger, F. Bruneval,
- D. Caliste, R. Caracas, M. Cote, T. Deutsch, L. Genovese, Ph. Ghosez, M. Giantomassi
- S. Goedecker, D.R. Hamann, P. Hermet, F. Jollet, G. Jomard, S. Leroux, M. Mancini, S. Mazevet,
- M.J.T. Oliveira, G. Onida, Y. Pouillon, T. Rangel, G.-M. Rignanese, D. Sangalli, R. Shaltaf,
- M. Torrent, M.J. Verstraete, G. Zerah, J.W. Zwanziger
- Comment: the third generic paper describing the ABINIT project.
- Note that a version of this paper, that is not formatted for Computer Phys. Comm. 
- is available at https://www.abinit.org/sites/default/files/ABINIT_CPC_v10.pdf .
- The licence allows the authors to put it on the Web.
- DOI and bibtex: see https://docs.abinit.org/theory/bibliography/#gonze2009
-
- Proc.   0 individual time (sec): cpu=      19132.9  wall=      19258.5
 
================================================================================
 
 Calculation completed.
.Delivered   0 WARNINGs and   2 COMMENTs to log file.
+Overall time at end (sec) : cpu=    1835922.1  wall=    1848791.3
