
.Version 9.7.2 of ABINIT 
.(MPI version, prepared for a x86_64_linux_intel2021.2 computer) 

.Copyright (C) 1998-2021 ABINIT group . 
 ABINIT comes with ABSOLUTELY NO WARRANTY.
 It is free software, and you are welcome to redistribute it
 under certain conditions (GNU General Public License,
 see ~abinit/COPYING or http://www.gnu.org/copyleft/gpl.txt).

 ABINIT is a project of the Universite Catholique de Louvain,
 Corning Inc. and other collaborators, see ~abinit/doc/developers/contributors.txt .
 Please read https://docs.abinit.org/theory/acknowledgments for suggested
 acknowledgments of the ABINIT effort.
 For more information, see https://www.abinit.org .

.Starting date : Fri  4 Mar 2022.
- ( at 04h57 )
  
- input  file    -> ./4H-2110_gw.abi
- output file    -> 4H-2110_gw.abo
- root for input  files -> 4H-2110_gw_i
- root for output files -> 4H-2110_gw_o
 
 
 DATASET    2 : space group Pb c m (# 57); Bravais oP (primitive ortho.)
================================================================================
 Values of the parameters that define the memory need for DATASET  2.
     intxc =       0    ionmov =       0      iscf =      -2    lmnmax =       1
     lnmax =       1     mgfft =     576  mpssoang =       2    mqgrid =   27069
     natom =      40  nloc_mem =       1    nspden =       1   nspinor =       1
    nsppol =       1      nsym =       8    n1xccc =       0    ntypat =       2
    occopt =       1   xclevel =       2
-    mband =        2136        mffmem =           1         mkmem =           1
       mpw =       23640          nfft =     1679616          nkpt =          16
================================================================================
P This job should need less than                    1271.104 Mbytes of memory.
  Rough estimation (10% accuracy) of disk space for files :
_ WF disk file :  12327.893 Mbytes ; DEN or POT disk file :     12.816 Mbytes.
================================================================================
 
--------------------------------------------------------------------------------
------------- Echo of variables that govern the present computation ------------
--------------------------------------------------------------------------------
-
- outvars: echo of selected default values                                      
-   iomode0 =  0 , fftalg0 =512 , wfoptalg0 =  0
-
- outvars: echo of global parameters not present in the input file              
-  max_nthreads =    0
-
 -outvars: echo values of preprocessed input variables --------
-          iomode           1
            acell      7.9531598930E+00  8.2733465235E+00  8.5037675980E+01 Bohr
              amu      1.20110000E+01  1.00794000E+00
          chkprim           0
     densfor_pred           6
           diemac      1.20000000E+01
             ecut      5.00000000E+01 Hartree
-          fftalg         512
           getden           1
      gw_icutcoul           2
             iscf          -2
           istwfk        1    0    0    1    0    0    0    0    0    0
                         0    0    1    0    0    1
              ixc     -208012
           jdtset        2
              kpt      0.00000000E+00  0.00000000E+00  0.00000000E+00
                       1.66666667E-01  0.00000000E+00  0.00000000E+00
                       3.33333333E-01  0.00000000E+00  0.00000000E+00
                       5.00000000E-01  0.00000000E+00  0.00000000E+00
                       0.00000000E+00  1.66666667E-01  0.00000000E+00
                       1.66666667E-01  1.66666667E-01  0.00000000E+00
                       3.33333333E-01  1.66666667E-01  0.00000000E+00
                       5.00000000E-01  1.66666667E-01  0.00000000E+00
                       0.00000000E+00  3.33333333E-01  0.00000000E+00
                       1.66666667E-01  3.33333333E-01  0.00000000E+00
                       3.33333333E-01  3.33333333E-01  0.00000000E+00
                       5.00000000E-01  3.33333333E-01  0.00000000E+00
                       0.00000000E+00  5.00000000E-01  0.00000000E+00
                       1.66666667E-01  5.00000000E-01  0.00000000E+00
                       3.33333333E-01  5.00000000E-01  0.00000000E+00
                       5.00000000E-01  5.00000000E-01  0.00000000E+00
         kptrlatt        6    0    0      0    6    0      0    0    1
          kptrlen      4.77189594E+01
P           mkmem           1
            natom          40
            nband        2136
           nbdbuf         267
           ndtset           1
            ngfft          54      54     576
             nkpt          16
-          npband           4
-        np_spkpt          16
            nstep         100
             nsym           8
           ntypat           2
           ortalg          -2
        paral_kgb           1
          prtkden           1
          spgroup          57
           symrel      1  0  0   0  1  0   0  0  1      -1  0  0   0 -1  0   0  0 -1
                      -1  0  0   0  1  0   0  0 -1       1  0  0   0 -1  0   0  0  1
                      -1  0  0   0 -1  0   0  0  1       1  0  0   0  1  0   0  0 -1
                       1  0  0   0 -1  0   0  0 -1      -1  0  0   0  1  0   0  0  1
            tnons      0.0000000  0.0000000  0.0000000     0.0000000 -0.0000000 -0.0000000
                       0.5000000  0.5000000 -0.0000000     0.5000000  0.5000000  0.0000000
                       0.0000000  0.5000000  0.0000000     0.0000000  0.5000000 -0.0000000
                       0.5000000 -0.0000000 -0.0000000     0.5000000  0.0000000  0.0000000
           tolsym      1.00000000E-04
           tolwfr      1.00000000E-18
            typat      1  1  1  1  1  1  1  1  1  1  1  1  1  1  1  1  1  1  1  1
                       1  1  1  1  1  1  1  1  1  1  1  1  2  2  2  2  2  2  2  2
          usekden           1
          vcutgeo      1.0000000  1.0000000  0.0000000
         wfoptalg         114
              wtk        0.02778    0.05556    0.05556    0.02778    0.05556    0.11111
                         0.11111    0.05556    0.05556    0.11111    0.11111    0.05556
                         0.02778    0.05556    0.05556    0.02778
           xangst      3.9281266812E+00  1.8036990759E+00  1.8132736230E+01
                       2.8050427046E-01  2.5743673431E+00  2.6867263770E+01
                       1.8238112054E+00  2.5743673431E+00  2.6867263770E+01
                       2.3848197463E+00  1.8036990759E+00  1.8132736230E+01
                       2.3848197463E+00  3.9927322854E+00  2.6867263770E+01
                       1.8238112054E+00  3.8533413363E-01  1.8132736230E+01
                       2.8050427046E-01  3.8533413363E-01  1.8132736230E+01
                       3.9281266812E+00  3.9927322854E+00  2.6867263770E+01
                       3.9454632820E+00  1.8251400546E+00  2.0616632883E+01
                       2.6316766965E-01  2.5529263644E+00  2.4383367117E+01
                       1.8411478062E+00  2.5529263644E+00  2.4383367117E+01
                       2.3674831455E+00  1.8251400546E+00  2.0616632883E+01
                       2.3674831455E+00  4.0141732641E+00  2.4383367117E+01
                       1.8411478062E+00  3.6389315488E-01  2.0616632883E+01
                       2.6316766965E-01  3.6389315488E-01  2.0616632883E+01
                       3.9454632820E+00  4.0141732641E+00  2.4383367117E+01
                       3.9447173734E+00  1.8238860206E+00  2.3127749280E+01
                       2.6391357828E-01  2.5541803984E+00  2.1872250720E+01
                       1.8404018975E+00  2.5541803984E+00  2.1872250720E+01
                       2.3682290541E+00  1.8238860206E+00  2.3127749280E+01
                       2.3682290541E+00  4.0129192301E+00  2.1872250720E+01
                       1.8404018975E+00  3.6514718892E-01  2.3127749280E+01
                       2.6391357828E-01  3.6514718892E-01  2.3127749280E+01
                       3.9447173734E+00  4.0129192301E+00  2.1872250720E+01
                       3.9440471637E+00  1.8208925985E+00  2.5642682398E+01
                       2.6458378795E-01  2.5571738205E+00  1.9357317602E+01
                       1.8397316879E+00  2.5571738205E+00  1.9357317602E+01
                       2.3688992638E+00  1.8208925985E+00  2.5642682398E+01
                       2.3688992638E+00  4.0099258080E+00  1.9357317602E+01
                       1.8397316879E+00  3.6814061102E-01  2.5642682398E+01
                       2.6458378795E-01  3.6814061102E-01  2.5642682398E+01
                       3.9440471637E+00  4.0099258080E+00  1.9357317602E+01
                       4.1510888202E+00  2.0757484229E+00  2.7783050658E+01
                       5.7542131487E-02  2.3023179961E+00  1.7216949342E+01
                       2.0467733443E+00  2.3023179961E+00  1.7216949342E+01
                       2.1618576073E+00  2.0757484229E+00  2.7783050658E+01
                       2.1618576073E+00  4.2647816324E+00  1.7216949342E+01
                       2.0467733443E+00  1.1328478664E-01  2.7783050658E+01
                       5.7542131487E-02  1.1328478664E-01  2.7783050658E+01
                       4.1510888202E+00  4.2647816324E+00  1.7216949342E+01
            xcart      7.4230836427E+00  3.4084972795E+00  3.4265905515E+01
                       5.3007625028E-01  4.8648492440E+00  5.0771770465E+01
                       3.4465036962E+00  4.8648492440E+00  5.0771770465E+01
                       4.5066561968E+00  3.4084972795E+00  3.4265905515E+01
                       4.5066561968E+00  7.5451705413E+00  5.0771770465E+01
                       3.4465036962E+00  7.2817598220E-01  3.4265905515E+01
                       5.3007625028E-01  7.2817598220E-01  3.4265905515E+01
                       7.4230836427E+00  7.5451705413E+00  5.0771770465E+01
                       7.4558450703E+00  3.4490148574E+00  3.8959789930E+01
                       4.9731482267E-01  4.8243316661E+00  4.6077886050E+01
                       3.4792651238E+00  4.8243316661E+00  4.6077886050E+01
                       4.4738947692E+00  3.4490148574E+00  3.8959789930E+01
                       4.4738947692E+00  7.5856881191E+00  4.6077886050E+01
                       3.4792651238E+00  6.8765840436E-01  3.8959789930E+01
                       4.9731482267E-01  6.8765840436E-01  3.8959789930E+01
                       7.4558450703E+00  7.5856881191E+00  4.6077886050E+01
                       7.4544355073E+00  3.4466450765E+00  4.3705112209E+01
                       4.9872438570E-01  4.8267014470E+00  4.1332563771E+01
                       3.4778555608E+00  4.8267014470E+00  4.1332563771E+01
                       4.4753043322E+00  3.4466450765E+00  4.3705112209E+01
                       4.4753043322E+00  7.5833183382E+00  4.1332563771E+01
                       3.4778555608E+00  6.9002818525E-01  4.3705112209E+01
                       4.9872438570E-01  6.9002818525E-01  4.3705112209E+01
                       7.4544355073E+00  7.5833183382E+00  4.1332563771E+01
                       7.4531689946E+00  3.4409883285E+00  4.8457647045E+01
                       4.9999089842E-01  4.8323581950E+00  3.6580028935E+01
                       3.4765890481E+00  4.8323581950E+00  3.6580028935E+01
                       4.4765708449E+00  3.4409883285E+00  4.8457647045E+01
                       4.4765708449E+00  7.5776615903E+00  3.6580028935E+01
                       3.4765890481E+00  6.9568493321E-01  4.8457647045E+01
                       4.9999089842E-01  6.9568493321E-01  4.8457647045E+01
                       7.4531689946E+00  7.5776615903E+00  3.6580028935E+01
                       7.8444210234E+00  3.9225960400E+00  5.2502356880E+01
                       1.0873886961E-01  4.3507504835E+00  3.2535319100E+01
                       3.8678410769E+00  4.3507504835E+00  3.2535319100E+01
                       4.0853188161E+00  3.9225960400E+00  5.2502356880E+01
                       4.0853188161E+00  8.0592693017E+00  3.2535319100E+01
                       3.8678410769E+00  2.1407722177E-01  5.2502356880E+01
                       1.0873886961E-01  2.1407722177E-01  5.2502356880E+01
                       7.8444210234E+00  8.0592693017E+00  3.2535319100E+01
             xred      9.3335023344E-01  4.1198531572E-01  4.0294969401E-01
                       6.6649766560E-02  5.8801468428E-01  5.9705030599E-01
                       4.3335023344E-01  5.8801468428E-01  5.9705030599E-01
                       5.6664976656E-01  4.1198531572E-01  4.0294969401E-01
                       5.6664976656E-01  9.1198531572E-01  5.9705030599E-01
                       4.3335023344E-01  8.8014684280E-02  4.0294969401E-01
                       6.6649766560E-02  8.8014684280E-02  4.0294969401E-01
                       9.3335023344E-01  9.1198531572E-01  5.9705030599E-01
                       9.3746953043E-01  4.1688267832E-01  4.5814739739E-01
                       6.2530469570E-02  5.8311732168E-01  5.4185260261E-01
                       4.3746953043E-01  5.8311732168E-01  5.4185260261E-01
                       5.6253046957E-01  4.1688267832E-01  4.5814739739E-01
                       5.6253046957E-01  9.1688267832E-01  5.4185260261E-01
                       4.3746953043E-01  8.3117321680E-02  4.5814739739E-01
                       6.2530469570E-02  8.3117321680E-02  4.5814739739E-01
                       9.3746953043E-01  9.1688267832E-01  5.4185260261E-01
                       9.3729229735E-01  4.1659624273E-01  5.1394998400E-01
                       6.2707702650E-02  5.8340375727E-01  4.8605001600E-01
                       4.3729229735E-01  5.8340375727E-01  4.8605001600E-01
                       5.6270770265E-01  4.1659624273E-01  5.1394998400E-01
                       5.6270770265E-01  9.1659624273E-01  4.8605001600E-01
                       4.3729229735E-01  8.3403757269E-02  5.1394998400E-01
                       6.2707702650E-02  8.3403757269E-02  5.1394998400E-01
                       9.3729229735E-01  9.1659624273E-01  4.8605001600E-01
                       9.3713305087E-01  4.1591251119E-01  5.6983738662E-01
                       6.2866949130E-02  5.8408748881E-01  4.3016261338E-01
                       4.3713305087E-01  5.8408748881E-01  4.3016261338E-01
                       5.6286694913E-01  4.1591251119E-01  5.6983738662E-01
                       5.6286694913E-01  9.1591251119E-01  4.3016261338E-01
                       4.3713305087E-01  8.4087488810E-02  5.6983738662E-01
                       6.2866949130E-02  8.4087488810E-02  5.6983738662E-01
                       9.3713305087E-01  9.1591251119E-01  4.3016261338E-01
                       9.8632758915E-01  4.7412447053E-01  6.1740112573E-01
                       1.3672410850E-02  5.2587552947E-01  3.8259887427E-01
                       4.8632758915E-01  5.2587552947E-01  3.8259887427E-01
                       5.1367241085E-01  4.7412447053E-01  6.1740112573E-01
                       5.1367241085E-01  9.7412447053E-01  3.8259887427E-01
                       4.8632758915E-01  2.5875529468E-02  6.1740112573E-01
                       1.3672410850E-02  2.5875529468E-02  6.1740112573E-01
                       9.8632758915E-01  9.7412447053E-01  3.8259887427E-01
            znucl        6.00000    1.00000
 
================================================================================
 
 chkinp: Checking input parameters for consistency, jdtset=   2.
 
================================================================================
== DATASET  2 ==================================================================
-   mpi_nproc: 64, omp_nthreads: -1 (-1 if OMP is not activated)
 

--- !DatasetInfo
iteration_state: {dtset: 2, }
dimensions: {natom: 40, nkpt: 16, mband: 2136, nsppol: 1, nspinor: 1, nspden: 1, mpw: 23640, }
cutoff_energies: {ecut:  50.0, pawecutdg:  -1.0, }
electrons: {nelect:   1.36000000E+02, charge:   0.00000000E+00, occopt:   1.00000000E+00, tsmear:   1.00000000E-02, }
meta: {optdriver: 0, ionmov: 0, optcell: 0, iscf: -2, paral_kgb: 1, }
...

 mkfilename : getden/=0, take file _DEN from output of DATASET   1.
 
 mkfilename : getkden/=0, take file _KDEN from output of DATASET   1.
 
 Real(R)+Recip(G) space primitive vectors, cartesian coordinates (Bohr,Bohr^-1):
 R(1)=  7.9531599  0.0000000  0.0000000  G(1)=  0.1257362  0.0000000  0.0000000
 R(2)=  0.0000000  8.2733465  0.0000000  G(2)=  0.0000000  0.1208701  0.0000000
 R(3)=  0.0000000  0.0000000 85.0376760  G(3)=  0.0000000  0.0000000  0.0117595
 Unit cell volume ucvol=  5.5954151E+03 bohr^3
 Angles (23,13,12)=  9.00000000E+01  9.00000000E+01  9.00000000E+01 degrees
 
 getcut: wavevector=  0.0000  0.0000  0.0000  ngfft=  54  54 576
         ecut(hartree)=     50.000   => boxcut(ratio)=   2.05051
 
--- Pseudopotential description ------------------------------------------------
- pspini: atom type   1  psp file is ../6c.4.hgh
- pspatm: opening atomic psp file    ../6c.4.hgh
- Hartwigsen-Goedecker-Hutter psp for C,  from PRB58, 3641 (1998)
-  6.00000   4.00000     10605                znucl, zion, pspdat
    3    1    1    0      2001   0.00000      pspcod,pspxc,lmax,lloc,mmax,r2well
 rloc=   0.3488300
 cc1 =  -8.5137710; cc2 =   1.2284320; cc3 =   0.0000000; cc4 =   0.0000000
 rrs =   0.3045530; h11s=   9.5228420; h22s=   0.0000000; h33s=   0.0000000
 rrp =   0.2326770; h11p=   0.0000000; h22p=   0.0000000; h33p=   0.0000000
                    k11p=   0.0041040; k22p=   0.0000000; k33p=   0.0000000
-  Local part computed in reciprocal space.
 
 pspatm : COMMENT -
  the projectors are not normalized,
  so that the KB energies are not consistent with 
  definition in PRB44, 8503 (1991). 
  However, this does not influence the results obtained hereafter.
  pspatm : epsatm=   -0.16969744
         --- l  ekb(1:nproj) -->
             0    0.953587
 pspatm: atomic psp has been read  and splines computed
 
- pspini: atom type   2  psp file is ../1h.1.hgh
- pspatm: opening atomic psp file    ../1h.1.hgh
- Hartwigsen-Goedecker-Hutter psp for H,  from PRB58, 3641 (1998)
-  1.00000   1.00000     10605                znucl, zion, pspdat
    3    1    0    0      2001   0.00000      pspcod,pspxc,lmax,lloc,mmax,r2well
 rloc=   0.2000000
 cc1 =  -4.1802370; cc2 =   0.7250750; cc3 =   0.0000000; cc4 =   0.0000000
 rrs =   0.0000000; h11s=   0.0000000; h22s=   0.0000000; h33s=   0.0000000
-  Local part computed in reciprocal space.
 
 pspatm : COMMENT -
  the projectors are not normalized,
  so that the KB energies are not consistent with 
  definition in PRB44, 8503 (1991). 
  However, this does not influence the results obtained hereafter.
  pspatm : epsatm=   -0.00129784
         --- l  ekb(1:nproj) -->
 pspatm: atomic psp has been read  and splines computed
 
--------------------------------------------------------------------------------
 
 
================================================================================
 prteigrs : about to open file 4H-2110_gw_o_DS2_EIG
 Non-SCF case, kpt    1 (  0.00000  0.00000  0.00000), residuals and eigenvalues=
  3.65E-28  1.24E-28  6.30E-29  7.54E-29  9.25E-30  7.05E-30  2.39E-28  9.18E-30
  5.76E-29  4.29E-29  3.27E-29  2.82E-29  6.01E-29  1.68E-29  9.96E-30  2.42E-29
  2.66E-29  4.11E-29  3.67E-30  1.57E-29  6.23E-30  8.68E-30  5.49E-30  1.57E-29
  9.22E-30  4.74E-30  3.70E-30  7.95E-30  8.13E-30  9.55E-30  5.01E-30  1.12E-29
  3.67E-30  4.51E-30  3.29E-30  1.78E-29  3.53E-30  9.05E-30  1.86E-30  1.05E-29
  3.38E-30  4.58E-30  6.04E-30  1.07E-29  5.32E-30  2.20E-30  1.01E-29  1.18E-29
  3.11E-30  3.39E-30  3.40E-30  3.08E-30  4.85E-30  2.32E-30  3.58E-30  2.34E-30
  2.66E-30  2.18E-30  4.64E-30  1.59E-30  1.51E-30  2.09E-30  3.45E-30  2.99E-30
  2.22E-30  2.88E-30  2.80E-30  3.12E-30  1.53E-30  1.77E-30  3.57E-30  1.98E-30
  2.11E-30  7.86E-30  2.47E-30  8.36E-30  3.90E-30  3.00E-30  2.97E-30  5.60E-30
  4.87E-30  2.42E-30  2.82E-30  9.50E-30  3.46E-30  3.17E-30  2.58E-30  4.07E-30
  4.29E-30  2.30E-30  3.07E-30  1.66E-29  3.53E-30  1.52E-30  6.80E-30  5.82E-30
  3.36E-30  3.32E-30  1.30E-29  3.01E-29  2.63E-30  1.51E-29  3.88E-30  8.75E-30
  6.09E-30  8.57E-30  3.49E-30  9.08E-30  5.28E-30  2.06E-29  2.82E-30  3.63E-30
  3.95E-30  2.72E-30  3.72E-30  1.03E-29  3.56E-30  4.72E-30  1.31E-29  6.76E-30
  7.51E-30  3.84E-30  3.97E-30  5.98E-30  5.41E-30  8.01E-30  4.02E-30  1.38E-29
  6.45E-30  2.02E-29  5.71E-30  1.05E-29  3.53E-30  5.10E-29  4.52E-29  4.96E-30
  1.48E-29  1.05E-29  1.34E-29  6.28E-30  8.23E-30  4.01E-30  8.17E-30  6.02E-30
  1.51E-29  1.02E-29  1.20E-29  1.70E-29  1.66E-29  7.90E-30  3.07E-29  6.47E-30
  1.02E-29  1.89E-29  1.08E-29  1.18E-29  6.57E-30  5.60E-30  3.05E-29  2.24E-29
  9.95E-30  1.57E-29  2.68E-29  4.28E-30  4.94E-30  1.94E-29  6.10E-30  7.34E-30
  6.91E-30  5.27E-30  5.50E-30  4.47E-29  7.89E-30  2.46E-29  7.35E-29  7.01E-30
  2.70E-29  1.03E-29  6.20E-30  4.70E-29  1.01E-29  9.57E-30  9.01E-30  3.92E-29
  6.21E-30  1.51E-29  2.90E-29  7.31E-30  4.32E-29  5.24E-29  4.53E-29  1.45E-29
  1.35E-29  1.11E-29  3.13E-29  3.00E-29  2.65E-29  1.44E-29  6.98E-30  1.78E-29
  2.15E-29  5.31E-29  1.78E-29  3.86E-29  1.10E-29  1.23E-29  6.55E-30  1.07E-29
  1.23E-29  1.63E-29  3.27E-29  2.83E-28  6.54E-30  9.95E-30  1.77E-29  9.69E-30
  9.84E-29  6.78E-29  1.53E-28  3.61E-29  1.42E-28  6.18E-30  2.76E-29  4.02E-29
  1.25E-29  6.46E-30  5.55E-29  1.33E-29  3.61E-29  4.93E-29  2.59E-29  7.98E-29
  3.76E-29  7.84E-30  4.52E-29  4.97E-29  1.11E-28  5.22E-29  1.84E-29  4.68E-29
  6.18E-30  3.54E-29  7.59E-29  1.52E-29  1.48E-28  1.61E-28  3.48E-29  3.64E-29
  5.60E-29  2.30E-29  5.59E-29  1.67E-29  4.82E-29  1.44E-29  9.68E-29  1.62E-28
  8.38E-30  9.17E-29  5.00E-29  5.88E-30  3.88E-29  1.95E-29  1.50E-29  4.07E-29
  5.12E-30  1.11E-29  1.05E-29  1.38E-28  6.84E-29  1.05E-28  2.22E-29  3.37E-29
  1.73E-29  2.18E-29  1.93E-28  2.06E-29  4.34E-29  1.47E-29  4.08E-28  1.02E-28
  7.67E-29  2.44E-28  8.72E-29  2.48E-29  9.95E-29  2.81E-28  1.57E-29  6.60E-29
  1.36E-28  2.26E-28  2.37E-29  2.59E-28  3.96E-29  1.48E-29  9.36E-29  8.82E-29
  2.18E-28  2.67E-28  1.30E-28  1.63E-29  7.59E-29  2.11E-28  3.25E-29  4.07E-28
  1.76E-29  1.75E-28  2.50E-28  3.04E-29  1.25E-29  4.55E-29  1.20E-28  2.42E-29
  1.59E-28  1.20E-29  4.76E-29  1.88E-29  1.60E-29  1.90E-29  1.39E-28  4.43E-29
  1.97E-28  2.53E-28  3.04E-29  1.27E-28  1.77E-29  1.76E-28  5.78E-29  1.73E-28
  3.72E-28  2.97E-29  2.68E-29  4.77E-28  8.89E-30  8.91E-29  1.94E-28  2.75E-29
  1.28E-28  3.11E-29  1.22E-29  1.95E-29  4.99E-29  5.78E-29  1.74E-29  6.81E-29
  4.58E-29  3.26E-29  4.41E-29  1.18E-28  3.39E-29  5.02E-29  1.79E-29  5.30E-29
  9.20E-30  8.83E-29  8.33E-29  1.11E-29  6.39E-29  1.61E-28  3.01E-29  2.84E-29
  5.43E-29  5.08E-29  2.16E-29  3.77E-29  2.92E-29  1.77E-29  1.64E-29  4.82E-29
  9.99E-30  1.15E-29  1.29E-29  4.32E-29  2.14E-29  2.77E-29  1.12E-29  2.20E-29
  2.30E-29  3.02E-29  1.48E-29  1.94E-29  1.48E-29  3.86E-29  4.07E-29  8.92E-30
  1.31E-29  1.23E-29  3.13E-29  1.43E-29  1.47E-29  5.35E-29  4.87E-29  5.10E-28
  4.33E-29  3.48E-28  1.78E-29  6.83E-29  1.34E-29  1.05E-28  5.67E-29  4.63E-29
  1.53E-29  2.20E-29  3.21E-28  2.14E-29  2.90E-29  1.34E-29  3.22E-29  3.43E-29
  2.95E-29  3.02E-29  6.45E-29  6.15E-29  2.55E-29  1.25E-29  2.26E-29  1.36E-28
  1.00E-28  4.78E-29  1.10E-28  1.56E-29  7.74E-30  3.88E-29  4.29E-29  1.08E-28
  3.03E-28  7.93E-29  1.35E-29  1.09E-29  1.39E-29  6.39E-29  1.65E-29  5.67E-29
  3.07E-29  2.04E-28  5.69E-29  2.58E-29  1.15E-29  1.92E-29  9.54E-29  2.84E-29
  1.49E-29  6.61E-29  3.67E-29  3.26E-29  1.53E-28  5.15E-29  2.78E-29  1.73E-29
  8.65E-29  4.32E-28  3.29E-29  6.15E-29  6.34E-29  6.44E-29  3.04E-28  4.52E-29
  1.34E-29  2.89E-29  1.03E-28  2.93E-29  5.16E-29  1.58E-28  2.57E-29  3.05E-29
  5.23E-29  1.43E-29  4.70E-29  1.60E-29  4.96E-29  1.63E-28  1.21E-29  1.90E-29
  2.65E-29  2.45E-28  2.14E-29  2.54E-29  5.28E-29  9.56E-29  1.66E-28  4.55E-29
  2.53E-29  1.30E-29  1.97E-29  4.82E-29  1.06E-28  2.70E-28  2.24E-29  3.47E-29
  1.83E-29  4.27E-29  3.89E-29  5.84E-29  8.32E-29  2.39E-29  3.06E-29  1.62E-28
  2.59E-29  1.87E-29  4.81E-29  4.52E-29  2.06E-29  1.03E-28  2.02E-29  2.23E-29
  1.78E-29  2.36E-29  1.74E-29  2.17E-29  1.69E-29  2.97E-29  1.36E-29  2.83E-29
  1.41E-29  2.84E-29  2.51E-29  3.08E-29  3.14E-28  9.64E-30  1.03E-28  3.35E-29
  8.76E-29  2.30E-29  9.68E-29  6.94E-29  2.55E-29  1.81E-29  4.46E-29  1.53E-29
  1.64E-29  2.33E-28  1.54E-29  3.69E-29  4.24E-29  2.12E-29  1.05E-28  4.87E-29
  2.58E-29  1.46E-29  7.57E-29  5.70E-29  3.49E-29  1.14E-29  2.33E-29  6.88E-29
  1.58E-28  4.89E-29  1.42E-28  2.57E-29  7.32E-29  3.88E-29  1.72E-28  4.25E-29
  6.25E-29  1.11E-28  4.32E-29  7.12E-29  4.46E-29  2.52E-29  1.41E-29  1.32E-28
  1.35E-29  5.80E-29  5.08E-29  3.52E-29  2.24E-28  9.34E-29  2.82E-29  1.73E-29
  1.38E-29  1.02E-29  1.91E-29  2.84E-29  9.17E-29  7.13E-29  2.26E-29  1.96E-29
  2.50E-29  7.55E-29  1.51E-29  2.75E-29  3.69E-29  5.09E-29  2.75E-29  1.65E-28
  8.35E-29  4.63E-29  1.21E-29  3.47E-29  2.63E-29  1.39E-29  1.76E-28  7.96E-29
  2.34E-29  1.36E-29  2.14E-29  3.99E-29  1.01E-29  1.57E-29  1.85E-28  1.09E-28
  6.45E-29  3.22E-29  1.32E-28  7.37E-29  1.64E-29  1.87E-29  1.26E-29  9.91E-29
  2.83E-29  1.61E-29  4.13E-28  5.62E-29  4.99E-29  1.05E-29  1.72E-29  9.98E-30
  1.37E-29  1.71E-28  1.28E-29  1.40E-29  1.83E-29  1.24E-29  6.02E-29  1.07E-29
  7.72E-29  1.93E-29  4.34E-29  1.36E-28  2.18E-29  2.34E-29  2.91E-29  9.09E-29
  8.61E-29  2.14E-29  1.34E-29  2.22E-29  1.69E-29  6.60E-29  2.81E-29  1.26E-29
  1.40E-29  2.66E-29  1.73E-29  5.99E-29  7.87E-29  7.18E-29  3.15E-29  1.83E-28
  1.48E-28  5.69E-29  2.04E-28  1.85E-28  2.49E-29  1.89E-28  7.58E-29  1.71E-29
  2.72E-29  1.29E-29  4.00E-29  7.65E-28  2.58E-29  1.24E-28  1.64E-29  8.66E-29
  1.37E-29  8.04E-29  1.63E-29  8.29E-29  3.09E-29  2.71E-28  1.74E-29  2.42E-29
  5.77E-29  1.35E-28  4.16E-29  1.28E-29  2.22E-28  3.06E-29  1.20E-29  3.64E-29
  5.19E-29  9.39E-29  1.28E-29  5.84E-29  4.03E-29  2.82E-28  9.71E-30  1.99E-29
  7.27E-29  2.25E-29  2.16E-29  1.92E-28  5.61E-29  2.97E-28  1.12E-28  1.95E-28
  3.54E-29  2.50E-29  8.61E-29  2.07E-29  4.16E-28  2.15E-29  1.16E-29  1.32E-29
  7.95E-29  7.32E-29  1.22E-28  2.69E-29  4.19E-29  2.65E-29  4.60E-29  4.26E-29
  1.27E-29  8.16E-29  3.11E-29  6.05E-29  3.06E-29  3.41E-29  2.05E-29  1.19E-28
  2.35E-29  7.90E-29  1.22E-29  1.97E-28  4.02E-28  1.92E-29  3.85E-29  2.91E-29
  6.46E-29  1.70E-29  3.07E-28  1.18E-28  5.41E-29  1.89E-28  1.09E-29  2.83E-29
  3.65E-29  1.11E-29  8.64E-29  4.55E-29  7.57E-29  4.56E-29  3.69E-29  5.89E-29
  1.07E-28  8.80E-29  4.30E-29  2.04E-28  3.10E-29  9.59E-30  5.93E-29  3.42E-29
  1.63E-29  2.80E-29  1.15E-29  3.02E-28  1.22E-29  1.00E-29  9.35E-30  3.76E-28
  1.35E-28  2.11E-29  3.03E-29  9.97E-30  6.74E-29  5.10E-29  5.20E-29  4.09E-29
  1.55E-28  2.33E-29  3.91E-29  1.89E-28  8.52E-29  4.38E-29  7.23E-29  1.24E-29
  1.27E-29  1.31E-28  2.28E-29  3.17E-29  2.15E-29  1.70E-28  3.92E-29  1.44E-28
  5.02E-29  2.86E-29  1.38E-29  1.13E-29  6.05E-29  8.15E-30  3.09E-28  2.53E-29
  1.88E-29  1.50E-29  1.12E-29  1.03E-29  4.16E-29  1.22E-28  7.53E-29  3.48E-29
  1.04E-28  3.77E-29  2.13E-29  2.63E-29  7.16E-29  3.17E-29  3.76E-28  1.63E-29
  4.91E-29  2.39E-28  1.48E-29  3.76E-29  1.14E-29  2.54E-29  2.86E-29  1.98E-28
  3.98E-29  4.04E-29  2.99E-29  4.87E-29  1.03E-29  5.37E-29  3.69E-29  5.50E-28
  1.27E-29  1.16E-28  1.42E-27  1.78E-29  9.25E-29  1.87E-29  1.06E-28  6.02E-29
  6.30E-29  1.84E-29  1.43E-29  7.84E-29  7.77E-29  6.45E-29  1.44E-29  1.23E-28
  6.66E-29  1.10E-29  6.56E-28  2.86E-29  8.99E-30  6.87E-29  2.25E-29  3.20E-29
  2.35E-28  1.40E-28  2.18E-28  9.51E-30  4.37E-29  1.67E-29  2.32E-29  5.25E-29
  9.95E-29  1.59E-28  5.00E-29  1.30E-28  2.69E-29  2.24E-28  1.67E-29  1.56E-29
  5.41E-29  9.22E-30  9.58E-29  1.55E-28  4.90E-29  5.66E-29  6.66E-29  2.84E-29
  1.45E-29  7.10E-30  3.49E-29  3.95E-29  2.80E-29  6.57E-29  1.12E-28  3.11E-28
  2.30E-28  2.92E-29  2.64E-28  1.92E-28  1.02E-29  4.13E-29  1.13E-29  1.51E-29
  9.33E-29  8.11E-29  1.29E-29  2.19E-29  2.35E-29  9.47E-29  1.72E-29  3.98E-29
  7.75E-29  9.87E-30  3.64E-29  5.69E-29  8.77E-29  5.40E-29  1.86E-29  3.45E-29
  8.89E-29  1.59E-29  2.74E-29  9.38E-30  9.51E-29  8.87E-29  8.21E-29  9.91E-30
  1.08E-28  1.16E-29  1.04E-29  2.45E-29  3.64E-29  8.80E-29  1.11E-28  8.28E-29
  2.89E-29  5.23E-29  3.94E-29  1.15E-28  7.03E-29  2.22E-29  3.38E-29  7.57E-30
  1.42E-29  7.25E-28  2.22E-29  1.24E-28  1.70E-29  1.12E-29  9.44E-30  8.80E-30
  9.31E-29  1.15E-29  9.14E-29  1.34E-29  3.88E-29  1.37E-28  7.22E-29  6.04E-29
  1.78E-28  2.18E-29  9.13E-30  8.37E-30  9.03E-30  7.46E-29  1.04E-29  1.58E-28
  1.72E-29  2.67E-29  3.10E-29  1.98E-29  1.00E-28  6.40E-29  1.23E-29  1.22E-29
  1.34E-29  8.32E-30  2.01E-29  2.24E-28  1.30E-29  4.69E-29  9.01E-29  7.14E-30
  1.65E-29  2.36E-29  4.39E-29  1.27E-28  3.10E-29  4.33E-29  1.42E-29  2.89E-29
  1.82E-28  1.01E-29  1.22E-29  4.04E-29  4.46E-29  5.06E-29  4.47E-29  7.94E-29
  6.04E-29  2.72E-29  8.39E-30  2.36E-29  1.52E-29  1.41E-28  1.11E-29  7.64E-29
  3.84E-28  4.27E-29  6.94E-29  3.14E-29  1.02E-28  6.71E-29  5.07E-29  1.95E-29
  1.33E-29  2.14E-29  1.33E-29  9.16E-30  3.13E-29  1.08E-29  7.80E-30  4.48E-29
  1.05E-28  1.22E-29  1.37E-29  7.25E-28  3.75E-29  4.80E-29  4.16E-29  7.82E-29
  9.81E-30  2.24E-29  3.32E-29  2.29E-29  8.85E-30  1.88E-28  4.02E-29  3.07E-29
  1.47E-29  1.39E-29  1.69E-29  1.89E-29  2.62E-28  7.28E-30  3.63E-29  2.37E-29
  2.23E-29  8.30E-30  6.94E-29  4.47E-29  8.78E-30  4.65E-29  1.64E-29  5.88E-29
  4.66E-29  1.52E-29  5.62E-29  8.94E-30  2.41E-28  3.23E-29  1.26E-29  2.97E-29
  1.90E-29  1.63E-29  1.93E-29  1.04E-28  6.83E-29  3.71E-29  2.70E-28  1.53E-28
  7.48E-29  3.42E-29  1.33E-28  7.31E-30  3.79E-29  1.59E-29  8.75E-29  7.40E-29
  2.28E-29  1.21E-29  1.85E-29  1.47E-29  1.21E-28  2.29E-29  3.97E-29  2.52E-29
  1.40E-28  1.04E-29  1.09E-28  1.21E-29  2.40E-29  6.48E-29  1.55E-28  1.72E-29
  3.59E-29  1.70E-29  1.29E-28  3.76E-28  1.21E-28  4.39E-29  3.06E-29  7.18E-30
  3.95E-29  4.15E-29  1.56E-29  4.32E-29  5.25E-29  8.42E-29  6.74E-30  1.28E-29
  1.14E-29  5.79E-29  2.48E-29  1.28E-28  1.10E-28  9.58E-30  4.21E-29  1.04E-29
  6.36E-30  3.97E-29  7.61E-30  1.95E-29  9.14E-29  9.88E-30  3.88E-29  1.82E-28
  4.09E-29  5.01E-29  7.46E-29  1.86E-29  1.81E-29  1.55E-29  9.86E-30  1.92E-29
  1.14E-29  7.98E-30  4.26E-29  6.60E-29  7.63E-30  1.31E-29  3.26E-29  7.32E-29
  2.38E-28  4.31E-29  1.01E-28  6.69E-30  3.92E-29  1.34E-29  7.02E-29  2.22E-29
  8.04E-30  6.96E-29  7.91E-30  6.21E-30  1.05E-29  8.78E-30  2.67E-29  1.11E-29
  3.13E-29  3.60E-28  2.50E-29  7.50E-30  1.19E-29  6.13E-29  2.81E-29  5.86E-29
  5.03E-30  1.99E-29  1.40E-29  1.96E-29  3.80E-29  1.24E-29  2.12E-29  2.01E-29
  1.63E-29  1.58E-29  5.12E-29  1.01E-29  5.62E-29  2.17E-29  5.58E-30  5.37E-29
  3.44E-29  1.05E-29  1.47E-29  1.23E-28  1.06E-28  7.35E-30  1.61E-29  6.22E-30
  2.11E-29  9.00E-30  6.32E-30  7.47E-30  6.09E-29  5.73E-30  2.53E-29  1.08E-28
  1.89E-29  5.69E-30  8.99E-30  1.36E-29  4.65E-29  5.99E-30  6.74E-30  1.10E-29
  1.05E-29  3.15E-29  6.45E-29  4.57E-30  4.91E-29  9.46E-29  2.14E-28  1.80E-29
  3.09E-29  2.85E-29  6.55E-29  1.17E-29  2.90E-29  9.86E-30  2.93E-29  2.44E-29
  3.78E-29  3.50E-29  1.18E-29  5.58E-30  3.05E-29  7.62E-29  1.00E-29  8.68E-30
  5.32E-29  2.18E-29  9.99E-30  4.83E-30  6.04E-29  6.83E-29  5.96E-29  3.58E-29
  1.54E-29  8.09E-30  1.21E-28  1.78E-29  5.57E-30  8.85E-30  1.62E-28  4.21E-29
  1.29E-29  6.39E-29  3.81E-29  2.15E-29  1.63E-29  1.59E-29  1.51E-29  8.36E-30
  8.45E-30  4.47E-29  3.00E-29  3.12E-29  2.85E-29  2.99E-29  2.89E-28  1.39E-29
  6.01E-30  4.56E-30  1.64E-29  4.35E-29  5.89E-29  5.10E-29  1.70E-29  2.71E-29
  6.15E-29  7.56E-29  1.96E-29  9.18E-29  3.49E-29  1.12E-29  1.83E-29  6.76E-30
  4.64E-29  6.83E-29  1.15E-29  3.28E-29  2.29E-29  5.20E-29  6.00E-30  2.83E-29
  2.50E-29  7.89E-30  1.95E-29  1.98E-28  6.01E-30  2.49E-29  1.09E-29  2.91E-29
  3.71E-30  3.71E-29  5.24E-29  7.04E-30  8.25E-30  5.96E-29  2.33E-29  5.04E-29
  7.18E-29  1.44E-29  3.83E-29  2.42E-29  1.17E-28  3.51E-29  2.87E-29  5.88E-29
  5.66E-30  5.05E-29  4.06E-29  4.34E-30  3.38E-29  4.22E-30  4.17E-30  7.17E-29
  1.37E-29  1.33E-29  4.62E-29  1.35E-29  9.60E-30  5.35E-30  9.19E-30  1.11E-29
  1.03E-28  1.97E-29  2.76E-29  3.66E-29  2.66E-29  1.01E-29  8.39E-29  6.99E-30
  1.14E-29  9.66E-30  1.82E-28  4.29E-30  1.64E-28  3.88E-29  6.81E-29  1.64E-29
  5.48E-30  1.02E-29  6.08E-30  2.43E-29  9.01E-30  8.10E-30  9.14E-29  1.50E-29
  9.65E-30  9.76E-30  6.21E-29  1.19E-29  3.49E-30  3.99E-30  1.68E-29  1.88E-29
  6.67E-30  1.13E-29  3.48E-29  4.31E-30  7.95E-30  4.58E-29  1.18E-29  9.02E-30
  1.54E-29  5.07E-29  7.30E-29  4.03E-29  4.49E-29  1.81E-28  2.02E-29  5.30E-29
  2.99E-29  1.03E-28  6.45E-30  8.09E-30  9.07E-30  6.82E-30  2.23E-29  4.51E-30
  1.01E-29  9.94E-30  3.55E-29  1.16E-29  4.50E-30  1.08E-28  5.16E-29  7.17E-30
  1.07E-28  1.13E-28  8.46E-30  2.26E-29  8.43E-30  1.51E-29  1.29E-28  1.95E-29
  2.05E-28  2.67E-29  2.13E-29  5.75E-30  3.93E-29  1.75E-29  2.28E-29  4.85E-30
  5.54E-30  4.74E-29  1.38E-28  6.74E-30  6.60E-29  2.29E-28  5.64E-29  2.51E-28
  1.07E-29  1.24E-29  1.40E-28  5.88E-29  7.72E-29  6.70E-29  8.67E-30  1.81E-29
  9.64E-30  7.51E-30  4.50E-30  4.60E-29  1.10E-28  1.99E-29  8.55E-29  2.08E-29
  4.93E-29  1.08E-29  5.90E-30  1.59E-29  3.69E-29  1.21E-29  5.79E-30  2.38E-29
  6.73E-30  6.99E-30  2.26E-29  5.73E-30  3.59E-29  1.73E-29  1.53E-29  5.00E-30
  2.45E-29  1.42E-29  5.58E-30  3.51E-29  3.38E-29  6.66E-30  7.82E-30  4.79E-29
  2.20E-29  2.14E-28  2.63E-29  2.93E-29  2.97E-29  5.24E-29  1.65E-29  2.69E-29
  4.43E-30  6.03E-30  1.60E-29  1.29E-28  5.86E-29  8.07E-30  3.54E-29  5.13E-30
  1.50E-29  5.63E-30  1.48E-29  1.64E-29  1.15E-28  6.85E-29  3.47E-29  6.85E-30
  4.96E-30  2.12E-29  1.50E-29  2.75E-29  1.21E-29  7.23E-29  2.19E-29  6.44E-30
  4.31E-30  3.95E-29  1.44E-29  3.95E-29  8.66E-30  5.15E-29  3.14E-29  5.86E-30
  7.50E-30  3.43E-29  1.33E-29  8.81E-30  7.79E-30  7.73E-30  8.23E-30  1.20E-28
  1.45E-29  5.74E-30  9.06E-30  1.02E-29  5.28E-29  6.13E-30  1.93E-29  6.94E-30
  8.65E-30  9.72E-30  1.31E-29  5.76E-30  6.23E-30  1.12E-29  7.70E-30  7.16E-29
  2.02E-29  7.82E-29  7.88E-30  6.71E-30  7.26E-30  1.99E-29  3.32E-29  8.23E-30
  2.11E-29  6.16E-29  1.64E-29  1.06E-29  3.94E-29  1.65E-29  1.92E-29  6.27E-30
  1.09E-28  1.24E-29  7.39E-30  7.73E-30  8.07E-30  1.93E-28  1.43E-29  4.12E-29
  7.63E-30  1.08E-29  2.88E-29  3.08E-29  1.30E-29  1.16E-29  8.20E-30  1.09E-29
  1.68E-29  1.27E-29  6.37E-29  1.31E-29  3.45E-29  1.78E-29  1.82E-29  1.51E-28
  1.22E-29  1.53E-29  7.18E-29  1.11E-29  1.56E-29  9.72E-30  5.20E-29  1.02E-28
  3.63E-29  2.12E-29  8.53E-30  1.23E-29  8.40E-30  5.24E-29  4.66E-29  8.95E-30
  8.16E-29  1.07E-29  2.65E-29  1.38E-29  1.03E-28  1.66E-28  1.09E-29  3.52E-29
  2.83E-29  3.46E-29  8.61E-30  1.84E-29  2.15E-29  1.16E-29  5.21E-29  2.77E-29
  3.66E-29  4.70E-29  1.39E-28  2.53E-29  1.15E-29  1.61E-29  9.30E-30  2.20E-29
  4.26E-29  2.80E-29  3.26E-29  3.46E-29  1.77E-29  4.03E-29  1.92E-29  2.19E-29
  1.23E-29  2.65E-29  1.80E-29  1.47E-29  5.87E-29  2.95E-29  1.34E-29  2.66E-29
  4.75E-29  2.60E-29  2.23E-29  4.89E-29  2.94E-29  3.70E-29  7.38E-29  1.60E-28
  3.24E-29  5.95E-29  8.26E-29  1.52E-28  4.74E-29  4.22E-29  8.12E-29  5.88E-29
  6.88E-29  5.35E-29  6.00E-29  1.02E-28  8.22E-29  1.65E-28  1.23E-28  1.03E-28
  7.14E-29  7.84E-29  1.02E-28  6.36E-29  5.85E-28  1.17E-28  1.17E-28  2.54E-28
  1.00E-28  2.61E-28  2.92E-28  3.73E-28  8.78E-29  9.68E-29  2.25E-28  3.04E-28
  2.48E-28  3.48E-28  4.19E-28  5.57E-28  2.53E-28  3.05E-28  5.81E-28  2.00E-28
  3.94E-28  2.79E-28  4.14E-28  5.94E-28  1.28E-27  4.44E-28  8.30E-28  4.25E-28
  1.59E-27  1.97E-27  1.79E-27  1.36E-27  9.68E-28  1.40E-27  1.80E-27  1.81E-27
  2.24E-27  3.01E-27  1.77E-27  2.17E-27  3.73E-27  4.66E-27  5.24E-27  3.01E-27
  5.00E-27  5.27E-27  8.23E-27  1.11E-26  5.76E-27  1.12E-26  5.14E-27  1.47E-26
  5.06E-27  1.21E-26  8.64E-27  2.92E-27  3.68E-27  1.28E-26  1.37E-26  1.90E-26
  3.30E-26  7.94E-27  7.92E-27  1.80E-26  1.78E-26  2.89E-26  1.25E-26  1.96E-26
  2.25E-26  9.74E-27  3.60E-26  1.78E-26  3.57E-26  4.62E-26  3.50E-26  2.33E-26
  5.04E-26  3.27E-26  8.03E-26  7.74E-26  7.08E-26  4.50E-26  1.49E-25  8.65E-26
  2.46E-25  1.59E-25  1.90E-25  2.05E-25  1.52E-25  9.04E-26  1.15E-25  1.86E-25
  3.27E-25  3.03E-25  3.19E-25  1.52E-25  2.97E-25  5.38E-25  4.92E-25  3.47E-25
  3.92E-25  4.81E-25  2.58E-25  1.06E-24  1.28E-24  2.70E-24  1.29E-24  2.10E-24
  7.98E-25  1.59E-24  9.43E-25  3.09E-24  1.66E-24  2.95E-24  2.02E-24  1.65E-24
  7.45E-24  1.84E-24  2.93E-24  3.84E-24  3.87E-24  3.58E-24  6.41E-24  6.60E-24
  1.12E-23  4.58E-24  4.93E-24  4.29E-24  6.99E-24  1.51E-23  1.81E-24  3.11E-24
  1.93E-24  2.14E-24  1.17E-23  2.81E-24  1.65E-23  1.92E-24  2.41E-23  6.62E-24
  1.98E-23  3.84E-24  9.01E-24  1.90E-23  9.62E-24  1.53E-23  1.48E-23  1.88E-23
  8.89E-24  1.79E-23  1.54E-23  1.81E-23  1.92E-23  8.58E-24  3.87E-23  2.93E-23
  2.58E-23  3.35E-23  5.23E-23  1.85E-23  7.91E-23  1.92E-23  7.92E-23  1.33E-23
  3.78E-23  1.36E-23  9.22E-23  1.12E-22  7.70E-23  1.63E-22  1.32E-22  1.45E-22
  1.22E-22  1.25E-22  2.69E-22  2.06E-22  2.68E-22  2.01E-22  1.28E-22  1.97E-22
  8.36E-23  3.10E-22  2.92E-22  3.62E-22  2.91E-22  1.76E-22  4.40E-22  3.78E-22
  3.03E-22  3.89E-22  1.04E-21  7.59E-22  1.54E-21  4.15E-22  2.11E-21  1.69E-21
  5.73E-22  7.62E-22  1.61E-21  1.02E-21  1.02E-21  1.49E-21  1.13E-21  8.47E-22
  4.65E-21  2.68E-21  1.35E-21  1.80E-21  2.66E-21  4.23E-21  3.53E-21  2.68E-21
  6.45E-21  4.95E-21  3.74E-21  5.50E-21  1.44E-20  1.03E-20  9.01E-21  6.73E-21
  6.95E-21  3.46E-21  1.65E-20  2.06E-20  1.01E-20  1.74E-20  4.55E-20  3.18E-20
  7.68E-21  3.26E-20  8.40E-21  4.47E-20  1.64E-20  3.87E-20  1.41E-20  2.70E-20
  2.99E-20  3.77E-20  5.38E-20  8.76E-20  1.22E-19  3.38E-20  7.14E-20  8.59E-20
  6.10E-20  5.91E-20  8.94E-20  2.41E-19  1.36E-19  2.62E-19  1.61E-19  1.69E-19
  2.77E-19  1.77E-19  5.00E-19  2.99E-19  6.15E-19  3.24E-19  5.62E-19  2.94E-19
  2.35E-19  6.70E-19  1.03E-18  1.23E-18  4.79E-19  1.11E-18  2.17E-18  1.90E-18
  7.65E-19  1.85E-18  1.21E-18  1.91E-18  1.65E-18  2.47E-18  2.43E-18  5.07E-18
  4.42E-18  4.66E-18  1.03E-17  3.10E-18  2.35E-18  4.75E-18  5.00E-18  1.44E-17
  7.81E-18  1.28E-17  6.92E-18  1.33E-17  6.27E-18  2.64E-17  1.13E-17  8.45E-18
  3.79E-17  1.09E-17  2.44E-17  3.90E-17  5.90E-18  2.87E-17  4.40E-18  1.07E-17
  5.01E-18  8.24E-18  2.03E-17  3.66E-17  1.99E-17  3.33E-17  1.30E-17  2.45E-16
  1.37E-17  2.73E-17  1.13E-17  1.16E-16  3.16E-17  8.19E-17  1.17E-16  2.08E-16
  1.73E-16  2.87E-17  3.94E-17  3.05E-17  1.66E-16  1.05E-16  3.79E-17  1.15E-16
  1.04E-16  1.43E-16  3.12E-17  5.71E-16  3.02E-16  3.51E-16  2.48E-16  2.06E-16
  9.95E-17  1.44E-16  6.38E-16  3.30E-16  6.37E-16  1.46E-16  9.37E-16  1.89E-16
  5.71E-16  3.95E-16  1.69E-16  6.81E-16  6.63E-16  9.42E-16  8.60E-16  2.15E-15
  1.50E-15  1.47E-15  1.57E-15  1.63E-15  1.84E-15  4.41E-15  3.78E-15  9.59E-15
  9.43E-16  9.27E-15  1.58E-15  3.86E-15  6.15E-15  1.77E-14  4.03E-15  8.08E-15
  6.93E-15  8.04E-14  2.58E-14  1.52E-14  2.06E-14  2.43E-14  2.03E-14  1.62E-14
  7.18E-15  9.38E-15  2.19E-14  1.80E-14  8.68E-14  2.38E-14  4.16E-14  1.16E-13
  1.08E-13  7.75E-14  5.01E-13  2.99E-13  1.26E-13  3.23E-13  2.91E-13  7.99E-14
  2.44E-13  3.32E-13  3.66E-13  2.13E-13  8.82E-14  1.82E-12  4.99E-13  3.70E-13
  9.32E-13  7.48E-13  4.70E-13  1.14E-12  1.84E-12  1.63E-12  1.04E-12  6.81E-13
  1.63E-12  2.43E-12  1.46E-12  2.31E-12  4.33E-12  2.35E-12  9.76E-13  2.90E-12
  8.41E-12  3.31E-12  7.53E-12  4.35E-12  7.10E-12  9.32E-12  4.69E-12  2.35E-11
  7.72E-12  3.09E-11  8.65E-12  1.33E-11  1.42E-11  2.44E-11  2.66E-11  3.29E-11
  2.05E-11  2.15E-11  5.12E-11  3.44E-11  8.65E-11  3.75E-11  1.67E-10  6.28E-11
  4.41E-11  3.52E-11  9.49E-11  1.54E-10  8.64E-11  1.26E-10  4.25E-10  1.87E-10
  1.44E-10  1.36E-10  1.65E-10  8.19E-10  3.08E-10  2.82E-09  2.12E-10  2.01E-09
  4.25E-10  3.19E-10  7.46E-10  2.74E-09  2.50E-09  1.61E-09  1.06E-09  9.96E-10
  5.90E-09  1.32E-09  6.02E-09  4.46E-09  5.55E-09  7.24E-09  6.99E-09  7.47E-09
  2.54E-08  3.03E-09  2.13E-08  1.16E-08  2.49E-08  3.80E-08  1.01E-08  1.21E-08
  5.99E-08  7.13E-08  5.37E-07  1.23E-07  4.75E-07  2.42E-07  2.56E-07  3.34E-07
  2.29E-07  3.59E-07  1.48E-07  2.02E-07  5.52E-07  1.60E-06  5.55E-07  6.91E-07
  8.75E-07  1.30E-06  9.23E-07  1.15E-06  2.70E-06  1.97E-06  8.09E-07  1.61E-06
  3.58E-06  2.69E-06  4.02E-06  5.53E-06  3.38E-06  7.02E-06  7.33E-06  7.22E-06
 -8.1028E-01 -7.8540E-01 -7.4450E-01 -6.8915E-01 -6.2559E-01 -6.1671E-01
 -6.0519E-01 -5.9373E-01 -5.8279E-01 -5.6702E-01 -5.5651E-01 -5.5207E-01
 -5.4589E-01 -5.4311E-01 -5.1654E-01 -5.0562E-01 -4.9570E-01 -4.9340E-01
 -4.5986E-01 -4.5624E-01 -4.3808E-01 -4.2927E-01 -4.2657E-01 -4.1320E-01
 -4.0655E-01 -3.8868E-01 -3.8562E-01 -3.7632E-01 -3.7337E-01 -3.6812E-01
 -3.6578E-01 -3.5925E-01 -3.4917E-01 -3.3557E-01 -3.2704E-01 -3.2436E-01
 -3.2192E-01 -3.1996E-01 -2.8956E-01 -2.8002E-01 -2.7567E-01 -2.7455E-01
 -2.7145E-01 -2.6990E-01 -2.5833E-01 -2.5714E-01 -2.5203E-01 -2.3864E-01
 -2.3588E-01 -2.2873E-01 -2.1065E-01 -2.0201E-01 -1.9864E-01 -1.9324E-01
 -1.7821E-01 -1.7128E-01 -1.4508E-01 -1.4441E-01 -1.4364E-01 -1.4303E-01
 -1.1855E-01 -1.1735E-01 -7.6064E-02 -7.1085E-02 -6.4325E-02 -3.9265E-02
 -2.5800E-02 -2.4576E-02  5.1492E-02  5.5819E-02  9.2327E-02  1.0337E-01
  1.2127E-01  1.5114E-01  1.5551E-01  1.5732E-01  1.6981E-01  1.7791E-01
  1.8356E-01  1.9166E-01  1.9614E-01  2.0228E-01  2.0378E-01  2.2414E-01
  2.2694E-01  2.3893E-01  2.4339E-01  2.6865E-01  2.7984E-01  2.8288E-01
  2.8495E-01  2.9258E-01  2.9345E-01  2.9604E-01  3.0443E-01  3.2233E-01
  3.3001E-01  3.3622E-01  3.5168E-01  3.5265E-01  3.5465E-01  3.5766E-01
  3.5929E-01  3.6081E-01  3.6218E-01  3.8038E-01  3.8095E-01  3.8099E-01
  3.8401E-01  3.8619E-01  3.8912E-01  4.0140E-01  4.1501E-01  4.1959E-01
  4.2279E-01  4.2626E-01  4.2709E-01  4.2951E-01  4.3489E-01  4.4765E-01
  4.5048E-01  4.5156E-01  4.5403E-01  4.5780E-01  4.6703E-01  4.7259E-01
  4.7371E-01  4.7777E-01  4.7877E-01  4.8530E-01  4.9079E-01  4.9118E-01
  5.0894E-01  5.0901E-01  5.0912E-01  5.0991E-01  5.1722E-01  5.2421E-01
  5.2426E-01  5.3535E-01  5.3625E-01  5.3673E-01  5.4082E-01  5.4518E-01
  5.5656E-01  5.6253E-01  5.7398E-01  5.7619E-01  5.7749E-01  5.7773E-01
  5.7936E-01  5.8406E-01  5.8993E-01  5.9775E-01  5.9997E-01  6.0138E-01
  6.0390E-01  6.0432E-01  6.1348E-01  6.1677E-01  6.1884E-01  6.2028E-01
  6.2178E-01  6.2284E-01  6.2406E-01  6.2446E-01  6.2912E-01  6.3353E-01
  6.3758E-01  6.3933E-01  6.4223E-01  6.4650E-01  6.4739E-01  6.4765E-01
  6.5432E-01  6.6143E-01  6.6753E-01  6.7765E-01  6.8287E-01  6.8738E-01
  6.9304E-01  6.9767E-01  7.0189E-01  7.0799E-01  7.0811E-01  7.1939E-01
  7.2595E-01  7.3117E-01  7.3391E-01  7.3806E-01  7.6148E-01  7.6753E-01
  7.6764E-01  7.6872E-01  7.7104E-01  7.7186E-01  7.8561E-01  7.9996E-01
  8.0074E-01  8.1800E-01  8.1946E-01  8.2377E-01  8.2949E-01  8.3446E-01
  8.3851E-01  8.4075E-01  8.4095E-01  8.4360E-01  8.4452E-01  8.4712E-01
  8.7800E-01  8.7927E-01  8.8104E-01  8.8215E-01  8.8242E-01  8.8746E-01
  8.9622E-01  9.0166E-01  9.0884E-01  9.1773E-01  9.1976E-01  9.2502E-01
  9.3566E-01  9.3709E-01  9.4520E-01  9.5051E-01  9.5077E-01  9.5461E-01
  9.5747E-01  9.6289E-01  9.6856E-01  9.7284E-01  9.7311E-01  9.7340E-01
  9.8014E-01  9.9013E-01  9.9207E-01  1.0015E+00  1.0030E+00  1.0116E+00
  1.0155E+00  1.0212E+00  1.0237E+00  1.0271E+00  1.0368E+00  1.0379E+00
  1.0425E+00  1.0441E+00  1.0525E+00  1.0618E+00  1.0650E+00  1.0773E+00
  1.0853E+00  1.0949E+00  1.0978E+00  1.1091E+00  1.1106E+00  1.1106E+00
  1.1107E+00  1.1114E+00  1.1151E+00  1.1263E+00  1.1342E+00  1.1397E+00
  1.1414E+00  1.1450E+00  1.1489E+00  1.1564E+00  1.1619E+00  1.1681E+00
  1.1683E+00  1.1700E+00  1.1729E+00  1.1746E+00  1.1748E+00  1.1752E+00
  1.1762E+00  1.1839E+00  1.1851E+00  1.1855E+00  1.1886E+00  1.1905E+00
  1.1914E+00  1.1947E+00  1.1967E+00  1.1989E+00  1.1990E+00  1.1991E+00
  1.1992E+00  1.2021E+00  1.2065E+00  1.2091E+00  1.2102E+00  1.2116E+00
  1.2121E+00  1.2140E+00  1.2162E+00  1.2191E+00  1.2219E+00  1.2274E+00
  1.2287E+00  1.2306E+00  1.2366E+00  1.2369E+00  1.2386E+00  1.2395E+00
  1.2417E+00  1.2417E+00  1.2510E+00  1.2524E+00  1.2527E+00  1.2547E+00
  1.2617E+00  1.2618E+00  1.2636E+00  1.2676E+00  1.2695E+00  1.2724E+00
  1.2752E+00  1.2797E+00  1.2802E+00  1.2817E+00  1.2848E+00  1.2852E+00
  1.2860E+00  1.2912E+00  1.2942E+00  1.2956E+00  1.2976E+00  1.3009E+00
  1.3124E+00  1.3162E+00  1.3175E+00  1.3185E+00  1.3258E+00  1.3259E+00
  1.3281E+00  1.3283E+00  1.3284E+00  1.3367E+00  1.3377E+00  1.3400E+00
  1.3485E+00  1.3487E+00  1.3512E+00  1.3571E+00  1.3580E+00  1.3590E+00
  1.3601E+00  1.3613E+00  1.3639E+00  1.3715E+00  1.3727E+00  1.3743E+00
  1.3760E+00  1.3775E+00  1.3816E+00  1.3902E+00  1.3913E+00  1.3928E+00
  1.3979E+00  1.4017E+00  1.4056E+00  1.4109E+00  1.4119E+00  1.4124E+00
  1.4128E+00  1.4150E+00  1.4154E+00  1.4221E+00  1.4230E+00  1.4260E+00
  1.4263E+00  1.4269E+00  1.4347E+00  1.4366E+00  1.4447E+00  1.4463E+00
  1.4470E+00  1.4495E+00  1.4519E+00  1.4553E+00  1.4555E+00  1.4565E+00
  1.4584E+00  1.4619E+00  1.4627E+00  1.4632E+00  1.4641E+00  1.4757E+00
  1.4768E+00  1.4772E+00  1.4792E+00  1.4800E+00  1.4801E+00  1.4801E+00
  1.4803E+00  1.4805E+00  1.4853E+00  1.4856E+00  1.4859E+00  1.4860E+00
  1.4876E+00  1.4889E+00  1.4935E+00  1.4938E+00  1.4940E+00  1.4958E+00
  1.4964E+00  1.4994E+00  1.5005E+00  1.5008E+00  1.5020E+00  1.5021E+00
  1.5046E+00  1.5085E+00  1.5096E+00  1.5104E+00  1.5107E+00  1.5112E+00
  1.5152E+00  1.5152E+00  1.5153E+00  1.5156E+00  1.5191E+00  1.5288E+00
  1.5317E+00  1.5321E+00  1.5338E+00  1.5342E+00  1.5346E+00  1.5413E+00
  1.5422E+00  1.5439E+00  1.5452E+00  1.5483E+00  1.5497E+00  1.5507E+00
  1.5520E+00  1.5530E+00  1.5571E+00  1.5584E+00  1.5598E+00  1.5598E+00
  1.5629E+00  1.5659E+00  1.5662E+00  1.5680E+00  1.5727E+00  1.5742E+00
  1.5759E+00  1.5766E+00  1.5826E+00  1.5869E+00  1.5875E+00  1.5889E+00
  1.5900E+00  1.5915E+00  1.5919E+00  1.5949E+00  1.5951E+00  1.5984E+00
  1.6006E+00  1.6016E+00  1.6020E+00  1.6041E+00  1.6045E+00  1.6090E+00
  1.6156E+00  1.6163E+00  1.6192E+00  1.6258E+00  1.6277E+00  1.6300E+00
  1.6302E+00  1.6323E+00  1.6336E+00  1.6364E+00  1.6366E+00  1.6380E+00
  1.6380E+00  1.6414E+00  1.6425E+00  1.6462E+00  1.6499E+00  1.6556E+00
  1.6558E+00  1.6564E+00  1.6570E+00  1.6578E+00  1.6617E+00  1.6637E+00
  1.6643E+00  1.6664E+00  1.6738E+00  1.6739E+00  1.6765E+00  1.6789E+00
  1.6794E+00  1.6807E+00  1.6856E+00  1.6865E+00  1.6902E+00  1.6933E+00
  1.6940E+00  1.6961E+00  1.6997E+00  1.7001E+00  1.7003E+00  1.7095E+00
  1.7100E+00  1.7169E+00  1.7173E+00  1.7191E+00  1.7199E+00  1.7215E+00
  1.7226E+00  1.7273E+00  1.7313E+00  1.7379E+00  1.7441E+00  1.7448E+00
  1.7450E+00  1.7464E+00  1.7483E+00  1.7486E+00  1.7503E+00  1.7507E+00
  1.7558E+00  1.7574E+00  1.7607E+00  1.7608E+00  1.7613E+00  1.7619E+00
  1.7680E+00  1.7687E+00  1.7705E+00  1.7709E+00  1.7769E+00  1.7799E+00
  1.7808E+00  1.7808E+00  1.7842E+00  1.7868E+00  1.7919E+00  1.7939E+00
  1.7946E+00  1.7975E+00  1.8001E+00  1.8001E+00  1.8028E+00  1.8087E+00
  1.8096E+00  1.8139E+00  1.8141E+00  1.8153E+00  1.8175E+00  1.8265E+00
  1.8299E+00  1.8329E+00  1.8329E+00  1.8356E+00  1.8365E+00  1.8377E+00
  1.8412E+00  1.8424E+00  1.8433E+00  1.8440E+00  1.8456E+00  1.8476E+00
  1.8528E+00  1.8590E+00  1.8597E+00  1.8599E+00  1.8659E+00  1.8672E+00
  1.8673E+00  1.8743E+00  1.8746E+00  1.8748E+00  1.8789E+00  1.8796E+00
  1.8849E+00  1.8918E+00  1.8920E+00  1.8929E+00  1.8940E+00  1.8973E+00
  1.8980E+00  1.9002E+00  1.9024E+00  1.9035E+00  1.9037E+00  1.9095E+00
  1.9139E+00  1.9214E+00  1.9252E+00  1.9284E+00  1.9292E+00  1.9348E+00
  1.9351E+00  1.9371E+00  1.9383E+00  1.9393E+00  1.9443E+00  1.9450E+00
  1.9514E+00  1.9524E+00  1.9567E+00  1.9570E+00  1.9580E+00  1.9591E+00
  1.9609E+00  1.9620E+00  1.9624E+00  1.9678E+00  1.9707E+00  1.9716E+00
  1.9749E+00  1.9777E+00  1.9803E+00  1.9810E+00  1.9812E+00  1.9812E+00
  1.9824E+00  1.9830E+00  1.9837E+00  1.9862E+00  1.9872E+00  1.9888E+00
  1.9909E+00  1.9910E+00  1.9950E+00  1.9955E+00  1.9973E+00  2.0088E+00
  2.0118E+00  2.0163E+00  2.0194E+00  2.0203E+00  2.0203E+00  2.0226E+00
  2.0234E+00  2.0279E+00  2.0312E+00  2.0330E+00  2.0330E+00  2.0336E+00
  2.0353E+00  2.0392E+00  2.0398E+00  2.0423E+00  2.0442E+00  2.0465E+00
  2.0495E+00  2.0503E+00  2.0512E+00  2.0528E+00  2.0545E+00  2.0555E+00
  2.0581E+00  2.0601E+00  2.0630E+00  2.0644E+00  2.0649E+00  2.0653E+00
  2.0681E+00  2.0703E+00  2.0705E+00  2.0734E+00  2.0763E+00  2.0825E+00
  2.0841E+00  2.0859E+00  2.0862E+00  2.0867E+00  2.0871E+00  2.0872E+00
  2.0940E+00  2.0965E+00  2.0989E+00  2.1047E+00  2.1057E+00  2.1094E+00
  2.1097E+00  2.1122E+00  2.1124E+00  2.1140E+00  2.1169E+00  2.1185E+00
  2.1195E+00  2.1257E+00  2.1266E+00  2.1280E+00  2.1300E+00  2.1312E+00
  2.1317E+00  2.1320E+00  2.1322E+00  2.1328E+00  2.1336E+00  2.1403E+00
  2.1406E+00  2.1410E+00  2.1444E+00  2.1446E+00  2.1450E+00  2.1451E+00
  2.1475E+00  2.1498E+00  2.1505E+00  2.1519E+00  2.1560E+00  2.1563E+00
  2.1570E+00  2.1595E+00  2.1622E+00  2.1653E+00  2.1658E+00  2.1662E+00
  2.1671E+00  2.1693E+00  2.1707E+00  2.1739E+00  2.1746E+00  2.1763E+00
  2.1775E+00  2.1786E+00  2.1799E+00  2.1811E+00  2.1815E+00  2.1872E+00
  2.1938E+00  2.1981E+00  2.1999E+00  2.2013E+00  2.2030E+00  2.2049E+00
  2.2059E+00  2.2081E+00  2.2103E+00  2.2119E+00  2.2123E+00  2.2159E+00
  2.2169E+00  2.2183E+00  2.2188E+00  2.2193E+00  2.2193E+00  2.2269E+00
  2.2282E+00  2.2306E+00  2.2308E+00  2.2308E+00  2.2309E+00  2.2332E+00
  2.2354E+00  2.2371E+00  2.2393E+00  2.2410E+00  2.2450E+00  2.2452E+00
  2.2457E+00  2.2457E+00  2.2496E+00  2.2514E+00  2.2516E+00  2.2526E+00
  2.2550E+00  2.2556E+00  2.2556E+00  2.2635E+00  2.2643E+00  2.2671E+00
  2.2687E+00  2.2736E+00  2.2745E+00  2.2746E+00  2.2749E+00  2.2763E+00
  2.2821E+00  2.2832E+00  2.2919E+00  2.2924E+00  2.2937E+00  2.2961E+00
  2.2986E+00  2.3019E+00  2.3020E+00  2.3031E+00  2.3055E+00  2.3076E+00
  2.3088E+00  2.3103E+00  2.3114E+00  2.3121E+00  2.3132E+00  2.3163E+00
  2.3238E+00  2.3238E+00  2.3240E+00  2.3271E+00  2.3301E+00  2.3301E+00
  2.3320E+00  2.3343E+00  2.3376E+00  2.3409E+00  2.3448E+00  2.3452E+00
  2.3452E+00  2.3456E+00  2.3474E+00  2.3476E+00  2.3481E+00  2.3497E+00
  2.3503E+00  2.3512E+00  2.3521E+00  2.3530E+00  2.3551E+00  2.3562E+00
  2.3564E+00  2.3595E+00  2.3602E+00  2.3602E+00  2.3605E+00  2.3630E+00
  2.3643E+00  2.3649E+00  2.3655E+00  2.3721E+00  2.3721E+00  2.3724E+00
  2.3725E+00  2.3728E+00  2.3784E+00  2.3805E+00  2.3819E+00  2.3837E+00
  2.3854E+00  2.3856E+00  2.3857E+00  2.3880E+00  2.3880E+00  2.3885E+00
  2.3889E+00  2.3948E+00  2.3955E+00  2.3970E+00  2.3988E+00  2.3994E+00
  2.4002E+00  2.4003E+00  2.4035E+00  2.4039E+00  2.4048E+00  2.4070E+00
  2.4070E+00  2.4109E+00  2.4128E+00  2.4145E+00  2.4155E+00  2.4163E+00
  2.4163E+00  2.4166E+00  2.4168E+00  2.4177E+00  2.4180E+00  2.4200E+00
  2.4204E+00  2.4225E+00  2.4225E+00  2.4230E+00  2.4231E+00  2.4244E+00
  2.4279E+00  2.4282E+00  2.4284E+00  2.4293E+00  2.4318E+00  2.4322E+00
  2.4336E+00  2.4339E+00  2.4345E+00  2.4346E+00  2.4368E+00  2.4386E+00
  2.4392E+00  2.4437E+00  2.4441E+00  2.4445E+00  2.4448E+00  2.4450E+00
  2.4479E+00  2.4492E+00  2.4512E+00  2.4520E+00  2.4522E+00  2.4528E+00
  2.4530E+00  2.4560E+00  2.4575E+00  2.4590E+00  2.4595E+00  2.4602E+00
  2.4608E+00  2.4610E+00  2.4632E+00  2.4632E+00  2.4641E+00  2.4653E+00
  2.4654E+00  2.4662E+00  2.4685E+00  2.4719E+00  2.4742E+00  2.4754E+00
  2.4760E+00  2.4769E+00  2.4828E+00  2.4834E+00  2.4844E+00  2.4846E+00
  2.4859E+00  2.4863E+00  2.4879E+00  2.4909E+00  2.4926E+00  2.4930E+00
  2.4935E+00  2.4941E+00  2.4972E+00  2.4972E+00  2.4990E+00  2.5010E+00
  2.5065E+00  2.5083E+00  2.5084E+00  2.5084E+00  2.5103E+00  2.5109E+00
  2.5117E+00  2.5125E+00  2.5137E+00  2.5144E+00  2.5158E+00  2.5159E+00
  2.5164E+00  2.5184E+00  2.5219E+00  2.5237E+00  2.5238E+00  2.5246E+00
  2.5253E+00  2.5258E+00  2.5300E+00  2.5339E+00  2.5346E+00  2.5352E+00
  2.5355E+00  2.5357E+00  2.5362E+00  2.5368E+00  2.5379E+00  2.5397E+00
  2.5438E+00  2.5471E+00  2.5492E+00  2.5502E+00  2.5557E+00  2.5589E+00
  2.5599E+00  2.5601E+00  2.5616E+00  2.5619E+00  2.5620E+00  2.5621E+00
  2.5622E+00  2.5636E+00  2.5645E+00  2.5691E+00  2.5695E+00  2.5712E+00
  2.5738E+00  2.5747E+00  2.5756E+00  2.5773E+00  2.5779E+00  2.5801E+00
  2.5808E+00  2.5813E+00  2.5818E+00  2.5823E+00  2.5871E+00  2.5892E+00
  2.5895E+00  2.5906E+00  2.5937E+00  2.5944E+00  2.5994E+00  2.5998E+00
  2.6011E+00  2.6025E+00  2.6028E+00  2.6034E+00  2.6048E+00  2.6055E+00
  2.6099E+00  2.6109E+00  2.6159E+00  2.6205E+00  2.6208E+00  2.6215E+00
  2.6235E+00  2.6281E+00  2.6294E+00  2.6308E+00  2.6319E+00  2.6321E+00
  2.6326E+00  2.6334E+00  2.6335E+00  2.6350E+00  2.6386E+00  2.6387E+00
  2.6402E+00  2.6439E+00  2.6456E+00  2.6465E+00  2.6466E+00  2.6477E+00
  2.6508E+00  2.6529E+00  2.6531E+00  2.6558E+00  2.6571E+00  2.6574E+00
  2.6589E+00  2.6607E+00  2.6627E+00  2.6644E+00  2.6653E+00  2.6665E+00
  2.6678E+00  2.6716E+00  2.6726E+00  2.6736E+00  2.6749E+00  2.6770E+00
  2.6781E+00  2.6781E+00  2.6822E+00  2.6840E+00  2.6917E+00  2.6921E+00
  2.6945E+00  2.6969E+00  2.7008E+00  2.7031E+00  2.7062E+00  2.7078E+00
  2.7085E+00  2.7099E+00  2.7103E+00  2.7105E+00  2.7107E+00  2.7134E+00
  2.7147E+00  2.7151E+00  2.7162E+00  2.7173E+00  2.7188E+00  2.7192E+00
  2.7197E+00  2.7220E+00  2.7228E+00  2.7256E+00  2.7287E+00  2.7292E+00
  2.7301E+00  2.7307E+00  2.7333E+00  2.7339E+00  2.7434E+00  2.7453E+00
  2.7460E+00  2.7471E+00  2.7515E+00  2.7519E+00  2.7537E+00  2.7545E+00
  2.7566E+00  2.7575E+00  2.7613E+00  2.7624E+00  2.7630E+00  2.7650E+00
  2.7656E+00  2.7656E+00  2.7664E+00  2.7673E+00  2.7730E+00  2.7734E+00
  2.7786E+00  2.7805E+00  2.7812E+00  2.7827E+00  2.7840E+00  2.7841E+00
  2.7867E+00  2.7871E+00  2.7901E+00  2.7911E+00  2.7916E+00  2.7970E+00
  2.7987E+00  2.7999E+00  2.8021E+00  2.8023E+00  2.8029E+00  2.8059E+00
  2.8062E+00  2.8093E+00  2.8099E+00  2.8118E+00  2.8168E+00  2.8170E+00
  2.8202E+00  2.8206E+00  2.8229E+00  2.8236E+00  2.8273E+00  2.8292E+00
  2.8305E+00  2.8335E+00  2.8354E+00  2.8364E+00  2.8382E+00  2.8385E+00
  2.8411E+00  2.8412E+00  2.8458E+00  2.8467E+00  2.8528E+00  2.8541E+00
  2.8546E+00  2.8553E+00  2.8567E+00  2.8596E+00  2.8613E+00  2.8628E+00
  2.8629E+00  2.8655E+00  2.8656E+00  2.8698E+00  2.8701E+00  2.8715E+00
  2.8726E+00  2.8745E+00  2.8759E+00  2.8770E+00  2.8776E+00  2.8801E+00
  2.8827E+00  2.8838E+00  2.8888E+00  2.8900E+00  2.8906E+00  2.8912E+00
  2.8967E+00  2.8974E+00  2.8981E+00  2.8984E+00  2.8988E+00  2.9002E+00
  2.9047E+00  2.9054E+00  2.9072E+00  2.9077E+00  2.9110E+00  2.9138E+00
  2.9140E+00  2.9148E+00  2.9175E+00  2.9181E+00  2.9192E+00  2.9203E+00
  2.9214E+00  2.9255E+00  2.9266E+00  2.9297E+00  2.9310E+00  2.9355E+00
  2.9357E+00  2.9403E+00  2.9412E+00  2.9444E+00  2.9463E+00  2.9490E+00
  2.9495E+00  2.9508E+00  2.9523E+00  2.9525E+00  2.9545E+00  2.9567E+00
  2.9570E+00  2.9572E+00  2.9578E+00  2.9610E+00  2.9650E+00  2.9674E+00
  2.9674E+00  2.9701E+00  2.9717E+00  2.9718E+00  2.9730E+00  2.9777E+00
  2.9804E+00  2.9809E+00  2.9819E+00  2.9820E+00  2.9830E+00  2.9861E+00
  2.9866E+00  2.9874E+00  2.9878E+00  2.9934E+00  2.9936E+00  2.9939E+00
  2.9952E+00  2.9955E+00  2.9956E+00  2.9962E+00  2.9972E+00  3.0011E+00
  3.0025E+00  3.0040E+00  3.0054E+00  3.0058E+00  3.0071E+00  3.0082E+00
  3.0105E+00  3.0114E+00  3.0116E+00  3.0214E+00  3.0217E+00  3.0247E+00
  3.0248E+00  3.0248E+00  3.0275E+00  3.0297E+00  3.0334E+00  3.0380E+00
  3.0388E+00  3.0393E+00  3.0415E+00  3.0422E+00  3.0427E+00  3.0442E+00
  3.0442E+00  3.0478E+00  3.0484E+00  3.0517E+00  3.0542E+00  3.0576E+00
  3.0587E+00  3.0619E+00  3.0624E+00  3.0626E+00  3.0639E+00  3.0670E+00
  3.0690E+00  3.0710E+00  3.0715E+00  3.0725E+00  3.0768E+00  3.0784E+00
  3.0789E+00  3.0790E+00  3.0804E+00  3.0814E+00  3.0817E+00  3.0820E+00
  3.0842E+00  3.0844E+00  3.0862E+00  3.0888E+00  3.0909E+00  3.0920E+00
  3.0942E+00  3.0949E+00  3.0949E+00  3.0957E+00  3.0958E+00  3.0999E+00
  3.1002E+00  3.1043E+00  3.1058E+00  3.1074E+00  3.1091E+00  3.1125E+00
  3.1139E+00  3.1146E+00  3.1154E+00  3.1157E+00  3.1203E+00  3.1221E+00
  3.1223E+00  3.1228E+00  3.1278E+00  3.1336E+00  3.1348E+00  3.1362E+00
  3.1369E+00  3.1401E+00  3.1404E+00  3.1414E+00  3.1432E+00  3.1456E+00
  3.1478E+00  3.1505E+00  3.1514E+00  3.1516E+00  3.1549E+00  3.1582E+00
  3.1594E+00  3.1595E+00  3.1625E+00  3.1625E+00  3.1632E+00  3.1634E+00
  3.1664E+00  3.1711E+00  3.1719E+00  3.1732E+00  3.1738E+00  3.1743E+00
  3.1760E+00  3.1772E+00  3.1813E+00  3.1842E+00  3.1859E+00  3.1877E+00
  3.1886E+00  3.1892E+00  3.1893E+00  3.1907E+00  3.1939E+00  3.1946E+00
  3.1988E+00  3.2014E+00  3.2032E+00  3.2051E+00  3.2060E+00  3.2083E+00
  3.2107E+00  3.2114E+00  3.2155E+00  3.2192E+00  3.2198E+00  3.2211E+00
  3.2212E+00  3.2255E+00  3.2275E+00  3.2277E+00  3.2303E+00  3.2309E+00
  3.2355E+00  3.2371E+00  3.2392E+00  3.2394E+00  3.2415E+00  3.2433E+00
  3.2447E+00  3.2459E+00  3.2478E+00  3.2492E+00  3.2500E+00  3.2507E+00
  3.2526E+00  3.2540E+00  3.2553E+00  3.2598E+00  3.2607E+00  3.2640E+00
  3.2657E+00  3.2666E+00  3.2680E+00  3.2687E+00  3.2722E+00  3.2742E+00
  3.2745E+00  3.2766E+00  3.2793E+00  3.2805E+00  3.2815E+00  3.2817E+00
  3.2817E+00  3.2820E+00  3.2859E+00  3.2859E+00  3.2860E+00  3.2881E+00
  3.2886E+00  3.2887E+00  3.2905E+00  3.2907E+00  3.2933E+00  3.2954E+00
  3.2977E+00  3.2981E+00  3.2981E+00  3.2987E+00  3.2997E+00  3.3016E+00
  3.3025E+00  3.3038E+00  3.3045E+00  3.3050E+00  3.3053E+00  3.3069E+00
  3.3074E+00  3.3081E+00  3.3093E+00  3.3098E+00  3.3106E+00  3.3113E+00
  3.3123E+00  3.3139E+00  3.3145E+00  3.3160E+00  3.3165E+00  3.3192E+00
  3.3209E+00  3.3212E+00  3.3237E+00  3.3238E+00  3.3257E+00  3.3269E+00
  3.3294E+00  3.3307E+00  3.3311E+00  3.3328E+00  3.3338E+00  3.3359E+00
  3.3367E+00  3.3377E+00  3.3434E+00  3.3454E+00  3.3454E+00  3.3464E+00
  3.3480E+00  3.3487E+00  3.3497E+00  3.3519E+00  3.3526E+00  3.3529E+00
  3.3531E+00  3.3565E+00  3.3576E+00  3.3597E+00  3.3604E+00  3.3636E+00
  3.3643E+00  3.3649E+00  3.3653E+00  3.3669E+00  3.3693E+00  3.3696E+00
  3.3699E+00  3.3712E+00  3.3716E+00  3.3717E+00  3.3736E+00  3.3753E+00
  3.3779E+00  3.3821E+00  3.3835E+00  3.3860E+00  3.3880E+00  3.3886E+00
  3.3894E+00  3.3913E+00  3.3916E+00  3.3923E+00  3.3949E+00  3.3950E+00
  3.3964E+00  3.3979E+00  3.4006E+00  3.4046E+00  3.4048E+00  3.4060E+00
  3.4093E+00  3.4113E+00  3.4114E+00  3.4118E+00  3.4145E+00  3.4149E+00
  3.4160E+00  3.4185E+00  3.4191E+00  3.4205E+00  3.4259E+00  3.4260E+00
  3.4267E+00  3.4272E+00  3.4277E+00  3.4298E+00  3.4298E+00  3.4302E+00
  3.4323E+00  3.4336E+00  3.4389E+00  3.4417E+00  3.4442E+00  3.4463E+00
  3.4491E+00  3.4503E+00  3.4504E+00  3.4508E+00  3.4521E+00  3.4531E+00
  3.4552E+00  3.4558E+00  3.4571E+00  3.4606E+00  3.4606E+00  3.4616E+00
  3.4618E+00  3.4632E+00  3.4690E+00  3.4700E+00  3.4705E+00  3.4712E+00
  3.4718E+00  3.4721E+00  3.4749E+00  3.4750E+00  3.4766E+00  3.4784E+00
  3.4787E+00  3.4811E+00  3.4815E+00  3.4822E+00  3.4842E+00  3.4844E+00
  3.4847E+00  3.4871E+00  3.4872E+00  3.4892E+00  3.4905E+00  3.4910E+00
  3.4917E+00  3.4943E+00  3.4962E+00  3.4966E+00  3.4983E+00  3.4986E+00
  3.4994E+00  3.5002E+00  3.5007E+00  3.5030E+00  3.5032E+00  3.5051E+00
  3.5085E+00  3.5089E+00  3.5105E+00  3.5121E+00  3.5131E+00  3.5153E+00
  3.5179E+00  3.5204E+00  3.5206E+00  3.5223E+00  3.5228E+00  3.5234E+00
  3.5302E+00  3.5320E+00  3.5324E+00  3.5333E+00  3.5346E+00  3.5382E+00
  3.5394E+00  3.5403E+00  3.5417E+00  3.5422E+00  3.5440E+00  3.5453E+00
  3.5457E+00  3.5458E+00  3.5463E+00  3.5473E+00  3.5496E+00  3.5504E+00
  3.5516E+00  3.5540E+00  3.5571E+00  3.5579E+00  3.5596E+00  3.5599E+00
  3.5600E+00  3.5620E+00  3.5633E+00  3.5635E+00  3.5661E+00  3.5693E+00
  3.5717E+00  3.5731E+00  3.5758E+00  3.5796E+00  3.5808E+00  3.5810E+00
  3.5844E+00  3.5847E+00  3.5857E+00  3.5863E+00  3.5875E+00  3.5878E+00
  3.5881E+00  3.5927E+00  3.5939E+00  3.5962E+00  3.5972E+00  3.5980E+00
  3.5989E+00  3.6031E+00  3.6061E+00  3.6062E+00  3.6087E+00  3.6088E+00
  3.6095E+00  3.6158E+00  3.6179E+00  3.6182E+00  3.6188E+00  3.6208E+00
  3.6218E+00  3.6243E+00  3.6254E+00  3.6266E+00  3.6268E+00  3.6284E+00
  3.6289E+00  3.6294E+00  3.6301E+00  3.6305E+00  3.6329E+00  3.6343E+00
  3.6344E+00  3.6369E+00  3.6387E+00  3.6399E+00  3.6404E+00  3.6431E+00
  3.6486E+00  3.6492E+00  3.6493E+00  3.6494E+00  3.6516E+00  3.6526E+00
  3.6532E+00  3.6576E+00  3.6580E+00  3.6629E+00  3.6632E+00  3.6632E+00
  3.6652E+00  3.6677E+00  3.6682E+00  3.6703E+00  3.6710E+00  3.6738E+00
  3.6748E+00  3.6754E+00  3.6766E+00  3.6818E+00  3.6821E+00  3.6849E+00
  3.6852E+00  3.6857E+00  3.6858E+00  3.6880E+00  3.6883E+00  3.6893E+00
  3.6894E+00  3.6920E+00  3.6934E+00  3.6943E+00  3.6951E+00  3.6975E+00
  3.6991E+00  3.6999E+00  3.7016E+00  3.7024E+00  3.7026E+00  3.7028E+00
  3.7063E+00  3.7081E+00  3.7090E+00  3.7094E+00  3.7109E+00  3.7133E+00
  3.7142E+00  3.7157E+00  3.7177E+00  3.7182E+00  3.7183E+00  3.7199E+00
  3.7205E+00  3.7224E+00  3.7242E+00  3.7275E+00  3.7278E+00  3.7280E+00
  3.7285E+00  3.7297E+00  3.7301E+00  3.7315E+00  3.7345E+00  3.7346E+00
  3.7347E+00  3.7377E+00  3.7386E+00  3.7402E+00  3.7422E+00  3.7437E+00
  3.7439E+00  3.7454E+00  3.7512E+00  3.7554E+00  3.7569E+00  3.7570E+00
  3.7571E+00  3.7602E+00  3.7608E+00  3.7628E+00  3.7646E+00  3.7650E+00
  3.7668E+00  3.7668E+00  3.7687E+00  3.7691E+00  3.7703E+00  3.7735E+00
  3.7742E+00  3.7751E+00  3.7768E+00  3.7779E+00  3.7783E+00  3.7799E+00
  3.7812E+00  3.7816E+00  3.7828E+00  3.7840E+00  3.7840E+00  3.7854E+00
  3.7869E+00  3.7870E+00  3.7872E+00  3.7873E+00  3.7919E+00  3.7922E+00
  3.7926E+00  3.7928E+00  3.7938E+00  3.7942E+00  3.7943E+00  3.7944E+00
  3.7956E+00  3.7959E+00  3.7973E+00  3.7975E+00  3.7977E+00  3.7980E+00
  3.7992E+00  3.8014E+00  3.8015E+00  3.8018E+00  3.8037E+00  3.8040E+00
  3.8079E+00  3.8080E+00  3.8104E+00  3.8105E+00  3.8110E+00  3.8125E+00
  3.8150E+00  3.8157E+00  3.8162E+00  3.8175E+00  3.8180E+00  3.8191E+00
  3.8191E+00  3.8230E+00  3.8233E+00  3.8247E+00  3.8253E+00  3.8257E+00
  3.8262E+00  3.8267E+00  3.8308E+00  3.8319E+00  3.8340E+00  3.8341E+00
  3.8345E+00  3.8349E+00  3.8349E+00  3.8359E+00  3.8360E+00  3.8363E+00
  3.8389E+00  3.8409E+00  3.8417E+00  3.8418E+00  3.8424E+00  3.8425E+00
  3.8487E+00  3.8508E+00  3.8508E+00  3.8522E+00  3.8537E+00  3.8541E+00
  3.8545E+00  3.8550E+00  3.8564E+00  3.8573E+00  3.8581E+00  3.8593E+00
  3.8604E+00  3.8606E+00  3.8634E+00  3.8647E+00  3.8649E+00  3.8657E+00
  3.8665E+00  3.8684E+00  3.8684E+00  3.8702E+00  3.8712E+00  3.8730E+00
  3.8733E+00  3.8741E+00  3.8742E+00  3.8746E+00  3.8771E+00  3.8788E+00
  3.8800E+00  3.8809E+00  3.8839E+00  3.8848E+00  3.8872E+00  3.8904E+00
  3.8906E+00  3.8914E+00  3.8927E+00  3.8932E+00  3.8950E+00  3.8962E+00
  3.8963E+00  3.8985E+00  3.8986E+00  3.8994E+00  3.9000E+00  3.9005E+00
  3.9014E+00  3.9068E+00  3.9080E+00  3.9081E+00  3.9084E+00  3.9134E+00
  3.9136E+00  3.9149E+00  3.9155E+00  3.9176E+00  3.9182E+00  3.9184E+00
  3.9199E+00  3.9202E+00  3.9209E+00  3.9219E+00  3.9223E+00  3.9239E+00
  3.9268E+00  3.9278E+00  3.9285E+00  3.9306E+00  3.9332E+00  3.9342E+00
  3.9352E+00  3.9372E+00  3.9372E+00  3.9405E+00  3.9420E+00  3.9429E+00
  3.9440E+00  3.9445E+00  3.9458E+00  3.9469E+00  3.9501E+00  3.9518E+00
  3.9526E+00  3.9537E+00  3.9539E+00  3.9547E+00  3.9550E+00  3.9567E+00
  3.9583E+00  3.9601E+00  3.9614E+00  3.9618E+00  3.9619E+00  3.9625E+00
  3.9653E+00  3.9658E+00  3.9666E+00  3.9669E+00  3.9676E+00  3.9679E+00
  3.9707E+00  3.9717E+00  3.9734E+00  3.9736E+00  3.9739E+00  3.9761E+00
  3.9765E+00  3.9767E+00  3.9768E+00  3.9769E+00  3.9777E+00  3.9780E+00
  3.9804E+00  3.9806E+00  3.9811E+00  3.9819E+00  3.9826E+00  3.9835E+00
  3.9843E+00  3.9844E+00  3.9851E+00  3.9864E+00  3.9864E+00  3.9864E+00
  3.9869E+00  3.9871E+00  3.9894E+00  3.9898E+00  3.9926E+00  3.9927E+00
  3.9928E+00  3.9934E+00  3.9943E+00  3.9961E+00  3.9975E+00  3.9990E+00
  3.9998E+00  4.0008E+00  4.0014E+00  4.0045E+00  4.0058E+00  4.0060E+00
  4.0061E+00  4.0065E+00  4.0083E+00  4.0085E+00  4.0090E+00  4.0093E+00
  4.0103E+00  4.0113E+00  4.0130E+00  4.0172E+00  4.0178E+00  4.0185E+00
  4.0214E+00  4.0220E+00  4.0221E+00  4.0227E+00  4.0236E+00  4.0242E+00
  4.0246E+00  4.0254E+00  4.0258E+00  4.0260E+00  4.0266E+00  4.0282E+00
  4.0291E+00  4.0312E+00  4.0356E+00  4.0357E+00  4.0382E+00  4.0383E+00
  4.0439E+00  4.0443E+00  4.0454E+00  4.0457E+00  4.0464E+00  4.0467E+00
  4.0472E+00  4.0473E+00  4.0480E+00  4.0484E+00  4.0497E+00  4.0507E+00
  4.0525E+00  4.0528E+00  4.0538E+00  4.0588E+00  4.0594E+00  4.0620E+00
  4.0665E+00  4.0666E+00  4.0670E+00  4.0679E+00  4.0683E+00  4.0688E+00
  4.0701E+00  4.0707E+00  4.0728E+00  4.0749E+00  4.0749E+00  4.0751E+00
  4.0768E+00  4.0782E+00  4.0800E+00  4.0808E+00  4.0810E+00  4.0812E+00
  4.0825E+00  4.0827E+00  4.0835E+00  4.0853E+00  4.0865E+00  4.0885E+00
  4.0896E+00  4.0898E+00  4.0905E+00  4.0909E+00  4.0933E+00  4.0943E+00
  4.0959E+00  4.0962E+00  4.0984E+00  4.0986E+00  4.0990E+00  4.1019E+00
  4.1032E+00  4.1037E+00  4.1055E+00  4.1070E+00  4.1071E+00  4.1077E+00
  4.1090E+00  4.1107E+00  4.1112E+00  4.1124E+00  4.1133E+00  4.1139E+00
  4.1144E+00  4.1184E+00  4.1196E+00  4.1197E+00  4.1201E+00  4.1204E+00
  4.1217E+00  4.1235E+00  4.1243E+00  4.1244E+00  4.1250E+00  4.1251E+00
  4.1273E+00  4.1280E+00  4.1290E+00  4.1295E+00  4.1312E+00  4.1325E+00
  4.1346E+00  4.1357E+00  4.1360E+00  4.1362E+00  4.1376E+00  4.1391E+00
  4.1425E+00  4.1436E+00  4.1447E+00  4.1463E+00  4.1477E+00  4.1482E+00
  4.1518E+00  4.1529E+00  4.1547E+00  4.1548E+00  4.1565E+00  4.1579E+00
  4.1599E+00  4.1603E+00  4.1614E+00  4.1618E+00  4.1625E+00  4.1638E+00
  4.1641E+00  4.1664E+00  4.1679E+00  4.1700E+00  4.1703E+00  4.1737E+00
  4.1798E+00  4.1815E+00  4.1819E+00  4.1824E+00  4.1851E+00  4.1854E+00
  4.1865E+00  4.1879E+00  4.1879E+00  4.1921E+00  4.1922E+00  4.1929E+00
  4.1936E+00  4.1988E+00  4.1992E+00  4.2035E+00  4.2047E+00  4.2050E+00
  4.2061E+00  4.2084E+00  4.2098E+00  4.2107E+00  4.2129E+00  4.2141E+00
  4.2156E+00  4.2171E+00  4.2193E+00  4.2228E+00  4.2244E+00  4.2290E+00
  prteigrs : nnsclo,ikpt=  100    1 max resid (incl. the buffer)=  7.33354E-06
 prteigrs : prtvol=0 or 1, do not print more k-points.
 
  prteigrs : nnsclo,ikpt=  100    2 max resid (incl. the buffer)=  1.20230E-05
  prteigrs : nnsclo,ikpt=  100    3 max resid (incl. the buffer)=  9.05160E-06
  prteigrs : nnsclo,ikpt=  100    4 max resid (incl. the buffer)=  5.52446E-06
  prteigrs : nnsclo,ikpt=  100    5 max resid (incl. the buffer)=  8.38306E-06
  prteigrs : nnsclo,ikpt=  100    6 max resid (incl. the buffer)=  6.84077E-06
  prteigrs : nnsclo,ikpt=  100    7 max resid (incl. the buffer)=  6.31669E-06
  prteigrs : nnsclo,ikpt=  100    8 max resid (incl. the buffer)=  8.17622E-06
  prteigrs : nnsclo,ikpt=  100    9 max resid (incl. the buffer)=  1.00712E-05
  prteigrs : nnsclo,ikpt=  100   10 max resid (incl. the buffer)=  6.32433E-06
  prteigrs : nnsclo,ikpt=  100   11 max resid (incl. the buffer)=  1.12730E-05
  prteigrs : nnsclo,ikpt=  100   12 max resid (incl. the buffer)=  7.13578E-06
  prteigrs : nnsclo,ikpt=  100   13 max resid (incl. the buffer)=  9.28063E-06
  prteigrs : nnsclo,ikpt=  100   14 max resid (incl. the buffer)=  6.37166E-06
  prteigrs : nnsclo,ikpt=  100   15 max resid (incl. the buffer)=  1.22129E-05
  prteigrs : nnsclo,ikpt=  100   16 max resid (incl. the buffer)=  7.15998E-06
 
 
Result for kinetic energy density :
 
--------------------------------------------------------------------------------
 Total kinetic energy density [Ha/Bohr^3]
      Maximum=    3.0547E+00  at reduced coord.    0.9259    0.9074    0.5972
      Minimum=    7.3373E-08  at reduced coord.    0.6111    0.1296    0.0052
   Integrated=    1.3837E+02
--------------------------------------------------------------------------------

--- !ResultsGS
iteration_state: {dtset: 2, }
comment   : Summary of ground state results
lattice_vectors:
- [  7.9531599,   0.0000000,   0.0000000, ]
- [  0.0000000,   8.2733465,   0.0000000, ]
- [  0.0000000,   0.0000000,  85.0376760, ]
lattice_lengths: [   7.95316,    8.27335,   85.03768, ]
lattice_angles: [ 90.000,  90.000,  90.000, ] # degrees, (23, 13, 12)
lattice_volume:   5.5954151E+03
convergence: {deltae:  0.000E+00, res2:  0.000E+00, residm:  8.709E-19, diffor:  0.000E+00, }
etotal    :  -1.36057598E+02
entropy   :   0.00000000E+00
fermie    :  -2.45762445E-02
cartesian_stress_tensor: null
pressure_GPa: null
xred      :
- [  9.3335E-01,   4.1199E-01,   4.0295E-01,  C]
- [  6.6650E-02,   5.8801E-01,   5.9705E-01,  C]
- [  4.3335E-01,   5.8801E-01,   5.9705E-01,  C]
- [  5.6665E-01,   4.1199E-01,   4.0295E-01,  C]
- [  5.6665E-01,   9.1199E-01,   5.9705E-01,  C]
- [  4.3335E-01,   8.8015E-02,   4.0295E-01,  C]
- [  6.6650E-02,   8.8015E-02,   4.0295E-01,  C]
- [  9.3335E-01,   9.1199E-01,   5.9705E-01,  C]
- [  9.3747E-01,   4.1688E-01,   4.5815E-01,  C]
- [  6.2530E-02,   5.8312E-01,   5.4185E-01,  C]
- [  4.3747E-01,   5.8312E-01,   5.4185E-01,  C]
- [  5.6253E-01,   4.1688E-01,   4.5815E-01,  C]
- [  5.6253E-01,   9.1688E-01,   5.4185E-01,  C]
- [  4.3747E-01,   8.3117E-02,   4.5815E-01,  C]
- [  6.2530E-02,   8.3117E-02,   4.5815E-01,  C]
- [  9.3747E-01,   9.1688E-01,   5.4185E-01,  C]
- [  9.3729E-01,   4.1660E-01,   5.1395E-01,  C]
- [  6.2708E-02,   5.8340E-01,   4.8605E-01,  C]
- [  4.3729E-01,   5.8340E-01,   4.8605E-01,  C]
- [  5.6271E-01,   4.1660E-01,   5.1395E-01,  C]
- [  5.6271E-01,   9.1660E-01,   4.8605E-01,  C]
- [  4.3729E-01,   8.3404E-02,   5.1395E-01,  C]
- [  6.2708E-02,   8.3404E-02,   5.1395E-01,  C]
- [  9.3729E-01,   9.1660E-01,   4.8605E-01,  C]
- [  9.3713E-01,   4.1591E-01,   5.6984E-01,  C]
- [  6.2867E-02,   5.8409E-01,   4.3016E-01,  C]
- [  4.3713E-01,   5.8409E-01,   4.3016E-01,  C]
- [  5.6287E-01,   4.1591E-01,   5.6984E-01,  C]
- [  5.6287E-01,   9.1591E-01,   4.3016E-01,  C]
- [  4.3713E-01,   8.4087E-02,   5.6984E-01,  C]
- [  6.2867E-02,   8.4087E-02,   5.6984E-01,  C]
- [  9.3713E-01,   9.1591E-01,   4.3016E-01,  C]
- [  9.8633E-01,   4.7412E-01,   6.1740E-01,  H]
- [  1.3672E-02,   5.2588E-01,   3.8260E-01,  H]
- [  4.8633E-01,   5.2588E-01,   3.8260E-01,  H]
- [  5.1367E-01,   4.7412E-01,   6.1740E-01,  H]
- [  5.1367E-01,   9.7412E-01,   3.8260E-01,  H]
- [  4.8633E-01,   2.5876E-02,   6.1740E-01,  H]
- [  1.3672E-02,   2.5876E-02,   6.1740E-01,  H]
- [  9.8633E-01,   9.7412E-01,   3.8260E-01,  H]
cartesian_forces: null
force_length_stats: {min: null, max: null, mean: null, }
...

 Integrated electronic density in atomic spheres:
 ------------------------------------------------
 Atom  Sphere_radius  Integrated_density
    1        2.00000          4.64582604
    2        2.00000          4.64582604
    3        2.00000          4.64582604
    4        2.00000          4.64582604
    5        2.00000          4.64582604
    6        2.00000          4.64582604
    7        2.00000          4.64582604
    8        2.00000          4.64582604
    9        2.00000          4.60901888
   10        2.00000          4.60901888
   11        2.00000          4.60901888
   12        2.00000          4.60901888
   13        2.00000          4.60901888
   14        2.00000          4.60901888
   15        2.00000          4.60901888
   16        2.00000          4.60901888
   17        2.00000          4.61829111
   18        2.00000          4.61829111
   19        2.00000          4.61829111
   20        2.00000          4.61829111
   21        2.00000          4.61829111
   22        2.00000          4.61829111
   23        2.00000          4.61829111
   24        2.00000          4.61829111
   25        2.00000          4.62059087
   26        2.00000          4.62059087
   27        2.00000          4.62059087
   28        2.00000          4.62059087
   29        2.00000          4.62059087
   30        2.00000          4.62059087
   31        2.00000          4.62059087
   32        2.00000          4.62059087
   33        2.00000          2.12246909
   34        2.00000          2.12246909
   35        2.00000          2.12246909
   36        2.00000          2.12246909
   37        2.00000          2.12246909
   38        2.00000          2.12246909
   39        2.00000          2.12246909
   40        2.00000          2.12246909
================================================================================
 
 ----iterations are completed or convergence reached----
 
 Mean square residual over all n,k,spin=   14.101E-22; max=  87.093E-20
 reduced coordinates (array xred) for   40 atoms
       0.933350233440      0.411985315718      0.402949694010
       0.066649766560      0.588014684280      0.597050305990
       0.433350233440      0.588014684280      0.597050305990
       0.566649766560      0.411985315718      0.402949694010
       0.566649766560      0.911985315718      0.597050305990
       0.433350233440      0.088014684280      0.402949694010
       0.066649766560      0.088014684280      0.402949694010
       0.933350233440      0.911985315718      0.597050305990
       0.937469530430      0.416882678318      0.458147397390
       0.062530469570      0.583117321680      0.541852602610
       0.437469530430      0.583117321680      0.541852602610
       0.562530469570      0.416882678318      0.458147397390
       0.562530469570      0.916882678318      0.541852602610
       0.437469530430      0.083117321680      0.458147397390
       0.062530469570      0.083117321680      0.458147397390
       0.937469530430      0.916882678318      0.541852602610
       0.937292297350      0.416596242729      0.513949984000
       0.062707702650      0.583403757269      0.486050016000
       0.437292297350      0.583403757269      0.486050016000
       0.562707702650      0.416596242729      0.513949984000
       0.562707702650      0.916596242729      0.486050016000
       0.437292297350      0.083403757269      0.513949984000
       0.062707702650      0.083403757269      0.513949984000
       0.937292297350      0.916596242729      0.486050016000
       0.937133050870      0.415912511189      0.569837386620
       0.062866949130      0.584087488810      0.430162613380
       0.437133050870      0.584087488810      0.430162613380
       0.562866949130      0.415912511189      0.569837386620
       0.562866949130      0.915912511189      0.430162613380
       0.437133050870      0.084087488810      0.569837386620
       0.062866949130      0.084087488810      0.569837386620
       0.937133050870      0.915912511189      0.430162613380
       0.986327589150      0.474124470530      0.617401125730
       0.013672410850      0.525875529468      0.382598874270
       0.486327589150      0.525875529468      0.382598874270
       0.513672410850      0.474124470530      0.617401125730
       0.513672410850      0.974124470530      0.382598874270
       0.486327589150      0.025875529468      0.617401125730
       0.013672410850      0.025875529468      0.617401125730
       0.986327589150      0.974124470530      0.382598874270
 
 cartesian coordinates (angstrom) at end:
    1      3.92812668118317     1.80369907586754    18.13273623048114
    2      0.28050427046451     2.57436734312722    26.86726376959615
    3      1.82381120535933     2.57436734312722    26.86726376959615
    4      2.38481974628835     1.80369907586754    18.13273623048114
    5      2.38481974628835     3.99273228536929    26.86726376959615
    6      1.82381120535933     0.38533413362546    18.13273623048114
    7      0.28050427046451     0.38533413362546    18.13273623048114
    8      3.92812668118317     3.99273228536929    26.86726376959615
    9      3.94546328199537     1.82514005460937    20.61663288258540
   10      0.26316766965231     2.55292636438538    24.38336711749188
   11      1.84114780617153     2.55292636438538    24.38336711749188
   12      2.36748314547615     1.82514005460937    20.61663288258540
   13      2.36748314547615     4.01417326411113    24.38336711749188
   14      1.84114780617153     0.36389315488363    20.61663288258540
   15      0.26316766965231     0.36389315488363    20.61663288258540
   16      3.94546328199537     4.01417326411113    24.38336711749188
   17      3.94471737336923     1.82388602057596    23.12774928003972
   18      0.26391357827846     2.55418039841879    21.87225072003757
   19      1.84040189754538     2.55418039841879    21.87225072003757
   20      2.36822905410230     1.82388602057596    23.12774928003972
   21      2.36822905410230     4.01291923007772    21.87225072003757
   22      1.84040189754538     0.36514718891703    23.12774928003972
   23      0.26391357827846     0.36514718891703    23.12774928003972
   24      3.94471737336923     4.01291923007772    21.87225072003757
   25      3.94404716370245     1.82089259847779    25.64268239794404
   26      0.26458378794523     2.55717382051696    19.35731760213324
   27      1.83973168787861     2.55717382051696    19.35731760213324
   28      2.36889926376907     1.82089259847779    25.64268239794404
   29      2.36889926376907     4.00992580797955    19.35731760213324
   30      1.83973168787861     0.36814061101521    25.64268239794404
   31      0.26458378794523     0.36814061101521    25.64268239794404
   32      3.94404716370245     4.00992580797955    19.35731760213324
   33      4.15108882016073     2.07574842285521    27.78305065789771
   34      0.05754213148695     2.30231799613954    17.21694934217957
   35      2.04677334433689     2.30231799613954    17.21694934217957
   36      2.16185760731079     2.07574842285521    27.78305065789771
   37      2.16185760731079     4.26478163235697    17.21694934217957
   38      2.04677334433689     0.11328478663779    27.78305065789771
   39      0.05754213148695     0.11328478663779    27.78305065789771
   40      4.15108882016073     4.26478163235697    17.21694934217957
 length scales=  7.953159893000  8.273346523500 85.037675980000 bohr
              =  4.208630951648  4.378066419004 45.000000000077 angstroms
 prteigrs : about to open file 4H-2110_gw_o_DS2_EIG
 Eigenvalues (hartree) for nkpt=  16  k points:
 kpt#   1, nband=  2136, wtk=  0.02778, kpt=  0.0000  0.0000  0.0000 (reduced coord)
  -0.81028   -0.78540   -0.74450   -0.68915   -0.62559   -0.61671   -0.60519   -0.59373
  -0.58279   -0.56702   -0.55651   -0.55207   -0.54589   -0.54311   -0.51654   -0.50562
  -0.49570   -0.49340   -0.45986   -0.45624   -0.43808   -0.42927   -0.42657   -0.41320
  -0.40655   -0.38868   -0.38562   -0.37632   -0.37337   -0.36812   -0.36578   -0.35925
  -0.34917   -0.33557   -0.32704   -0.32436   -0.32192   -0.31996   -0.28956   -0.28002
  -0.27567   -0.27455   -0.27145   -0.26990   -0.25833   -0.25714   -0.25203   -0.23864
  -0.23588   -0.22873   -0.21065   -0.20201   -0.19864   -0.19324   -0.17821   -0.17128
  -0.14508   -0.14441   -0.14364   -0.14303   -0.11855   -0.11735   -0.07606   -0.07108
  -0.06432   -0.03926   -0.02580   -0.02458    0.05149    0.05582    0.09233    0.10337
   0.12127    0.15114    0.15551    0.15732    0.16981    0.17791    0.18356    0.19166
   0.19614    0.20228    0.20378    0.22414    0.22694    0.23893    0.24339    0.26865
   0.27984    0.28288    0.28495    0.29258    0.29345    0.29604    0.30443    0.32233
[...]
   4.05937    4.06203    4.06646    4.06662    4.06703    4.06792    4.06834    4.06884
   4.07010    4.07072    4.07281    4.07488    4.07495    4.07510    4.07683    4.07824
   4.08001    4.08079    4.08098    4.08123    4.08253    4.08267    4.08353    4.08527
   4.08648    4.08852    4.08955    4.08977    4.09052    4.09093    4.09332    4.09425
   4.09590    4.09617    4.09839    4.09859    4.09903    4.10185    4.10318    4.10374
   4.10547    4.10699    4.10713    4.10772    4.10899    4.11066    4.11125    4.11240
   4.11334    4.11387    4.11436    4.11842    4.11960    4.11972    4.12006    4.12037
   4.12174    4.12348    4.12434    4.12440    4.12500    4.12514    4.12730    4.12803
   4.12901    4.12949    4.13118    4.13251    4.13457    4.13575    4.13603    4.13617
   4.13765    4.13908    4.14251    4.14362    4.14475    4.14628    4.14773    4.14820
   4.15182    4.15290    4.15474    4.15481    4.15649    4.15792    4.15986    4.16027
   4.16143    4.16180    4.16249    4.16384    4.16408    4.16637    4.16787    4.16999
   4.17028    4.17372    4.17984    4.18155    4.18195    4.18237    4.18507    4.18541
   4.18649    4.18789    4.18791    4.19211    4.19224    4.19286    4.19356    4.19879
   4.19922    4.20351    4.20473    4.20496    4.20608    4.20844    4.20984    4.21075
   4.21292    4.21413    4.21561    4.21708    4.21926    4.22278    4.22442    4.22903
 prteigrs : prtvol=0 or 1, do not print more k-points.
 
 
== END DATASET(S) ==============================================================
================================================================================
  
 -outvars: echo values of variables after computation  --------
-          iomode           1
            acell      7.9531598930E+00  8.2733465235E+00  8.5037675980E+01 Bohr
              amu      1.20110000E+01  1.00794000E+00
          chkprim           0
     densfor_pred           6
           diemac      1.20000000E+01
             ecut      5.00000000E+01 Hartree
-          fftalg         512
           getden           1
      gw_icutcoul           2
             iscf          -2
           istwfk        1    0    0    1    0    0    0    0    0    0
                         0    0    1    0    0    1
              ixc     -208012
           jdtset        2
              kpt      0.00000000E+00  0.00000000E+00  0.00000000E+00
                       1.66666667E-01  0.00000000E+00  0.00000000E+00
                       3.33333333E-01  0.00000000E+00  0.00000000E+00
                       5.00000000E-01  0.00000000E+00  0.00000000E+00
                       0.00000000E+00  1.66666667E-01  0.00000000E+00
                       1.66666667E-01  1.66666667E-01  0.00000000E+00
                       3.33333333E-01  1.66666667E-01  0.00000000E+00
                       5.00000000E-01  1.66666667E-01  0.00000000E+00
                       0.00000000E+00  3.33333333E-01  0.00000000E+00
                       1.66666667E-01  3.33333333E-01  0.00000000E+00
                       3.33333333E-01  3.33333333E-01  0.00000000E+00
                       5.00000000E-01  3.33333333E-01  0.00000000E+00
                       0.00000000E+00  5.00000000E-01  0.00000000E+00
                       1.66666667E-01  5.00000000E-01  0.00000000E+00
                       3.33333333E-01  5.00000000E-01  0.00000000E+00
                       5.00000000E-01  5.00000000E-01  0.00000000E+00
         kptrlatt        6    0    0      0    6    0      0    0    1
          kptrlen      4.77189594E+01
P           mkmem           1
            natom          40
            nband        2136
           nbdbuf         267
           ndtset           1
            ngfft          54      54     576
             nkpt          16
-          npband           4
-        np_spkpt          16
            nstep         100
             nsym           8
           ntypat           2
           ortalg          -2
        paral_kgb           1
          prtkden           1
          spgroup          57
           symrel      1  0  0   0  1  0   0  0  1      -1  0  0   0 -1  0   0  0 -1
                      -1  0  0   0  1  0   0  0 -1       1  0  0   0 -1  0   0  0  1
                      -1  0  0   0 -1  0   0  0  1       1  0  0   0  1  0   0  0 -1
                       1  0  0   0 -1  0   0  0 -1      -1  0  0   0  1  0   0  0  1
            tnons      0.0000000  0.0000000  0.0000000     0.0000000 -0.0000000 -0.0000000
                       0.5000000  0.5000000 -0.0000000     0.5000000  0.5000000  0.0000000
                       0.0000000  0.5000000  0.0000000     0.0000000  0.5000000 -0.0000000
                       0.5000000 -0.0000000 -0.0000000     0.5000000  0.0000000  0.0000000
           tolsym      1.00000000E-04
           tolwfr      1.00000000E-18
            typat      1  1  1  1  1  1  1  1  1  1  1  1  1  1  1  1  1  1  1  1
                       1  1  1  1  1  1  1  1  1  1  1  1  2  2  2  2  2  2  2  2
          usekden           1
          vcutgeo      1.0000000  1.0000000  0.0000000
         wfoptalg         114
              wtk        0.02778    0.05556    0.05556    0.02778    0.05556    0.11111
                         0.11111    0.05556    0.05556    0.11111    0.11111    0.05556
                         0.02778    0.05556    0.05556    0.02778
           xangst      3.9281266812E+00  1.8036990759E+00  1.8132736230E+01
                       2.8050427046E-01  2.5743673431E+00  2.6867263770E+01
                       1.8238112054E+00  2.5743673431E+00  2.6867263770E+01
                       2.3848197463E+00  1.8036990759E+00  1.8132736230E+01
                       2.3848197463E+00  3.9927322854E+00  2.6867263770E+01
                       1.8238112054E+00  3.8533413363E-01  1.8132736230E+01
                       2.8050427046E-01  3.8533413363E-01  1.8132736230E+01
                       3.9281266812E+00  3.9927322854E+00  2.6867263770E+01
                       3.9454632820E+00  1.8251400546E+00  2.0616632883E+01
                       2.6316766965E-01  2.5529263644E+00  2.4383367117E+01
                       1.8411478062E+00  2.5529263644E+00  2.4383367117E+01
                       2.3674831455E+00  1.8251400546E+00  2.0616632883E+01
                       2.3674831455E+00  4.0141732641E+00  2.4383367117E+01
                       1.8411478062E+00  3.6389315488E-01  2.0616632883E+01
                       2.6316766965E-01  3.6389315488E-01  2.0616632883E+01
                       3.9454632820E+00  4.0141732641E+00  2.4383367117E+01
                       3.9447173734E+00  1.8238860206E+00  2.3127749280E+01
                       2.6391357828E-01  2.5541803984E+00  2.1872250720E+01
                       1.8404018975E+00  2.5541803984E+00  2.1872250720E+01
                       2.3682290541E+00  1.8238860206E+00  2.3127749280E+01
                       2.3682290541E+00  4.0129192301E+00  2.1872250720E+01
                       1.8404018975E+00  3.6514718892E-01  2.3127749280E+01
                       2.6391357828E-01  3.6514718892E-01  2.3127749280E+01
                       3.9447173734E+00  4.0129192301E+00  2.1872250720E+01
                       3.9440471637E+00  1.8208925985E+00  2.5642682398E+01
                       2.6458378795E-01  2.5571738205E+00  1.9357317602E+01
                       1.8397316879E+00  2.5571738205E+00  1.9357317602E+01
                       2.3688992638E+00  1.8208925985E+00  2.5642682398E+01
                       2.3688992638E+00  4.0099258080E+00  1.9357317602E+01
                       1.8397316879E+00  3.6814061102E-01  2.5642682398E+01
                       2.6458378795E-01  3.6814061102E-01  2.5642682398E+01
                       3.9440471637E+00  4.0099258080E+00  1.9357317602E+01
                       4.1510888202E+00  2.0757484229E+00  2.7783050658E+01
                       5.7542131487E-02  2.3023179961E+00  1.7216949342E+01
                       2.0467733443E+00  2.3023179961E+00  1.7216949342E+01
                       2.1618576073E+00  2.0757484229E+00  2.7783050658E+01
                       2.1618576073E+00  4.2647816324E+00  1.7216949342E+01
                       2.0467733443E+00  1.1328478664E-01  2.7783050658E+01
                       5.7542131487E-02  1.1328478664E-01  2.7783050658E+01
                       4.1510888202E+00  4.2647816324E+00  1.7216949342E+01
            xcart      7.4230836427E+00  3.4084972795E+00  3.4265905515E+01
                       5.3007625028E-01  4.8648492440E+00  5.0771770465E+01
                       3.4465036962E+00  4.8648492440E+00  5.0771770465E+01
                       4.5066561968E+00  3.4084972795E+00  3.4265905515E+01
                       4.5066561968E+00  7.5451705413E+00  5.0771770465E+01
                       3.4465036962E+00  7.2817598220E-01  3.4265905515E+01
                       5.3007625028E-01  7.2817598220E-01  3.4265905515E+01
                       7.4230836427E+00  7.5451705413E+00  5.0771770465E+01
                       7.4558450703E+00  3.4490148574E+00  3.8959789930E+01
                       4.9731482267E-01  4.8243316661E+00  4.6077886050E+01
                       3.4792651238E+00  4.8243316661E+00  4.6077886050E+01
                       4.4738947692E+00  3.4490148574E+00  3.8959789930E+01
                       4.4738947692E+00  7.5856881191E+00  4.6077886050E+01
                       3.4792651238E+00  6.8765840436E-01  3.8959789930E+01
                       4.9731482267E-01  6.8765840436E-01  3.8959789930E+01
                       7.4558450703E+00  7.5856881191E+00  4.6077886050E+01
                       7.4544355073E+00  3.4466450765E+00  4.3705112209E+01
                       4.9872438570E-01  4.8267014470E+00  4.1332563771E+01
                       3.4778555608E+00  4.8267014470E+00  4.1332563771E+01
                       4.4753043322E+00  3.4466450765E+00  4.3705112209E+01
                       4.4753043322E+00  7.5833183382E+00  4.1332563771E+01
                       3.4778555608E+00  6.9002818525E-01  4.3705112209E+01
                       4.9872438570E-01  6.9002818525E-01  4.3705112209E+01
                       7.4544355073E+00  7.5833183382E+00  4.1332563771E+01
                       7.4531689946E+00  3.4409883285E+00  4.8457647045E+01
                       4.9999089842E-01  4.8323581950E+00  3.6580028935E+01
                       3.4765890481E+00  4.8323581950E+00  3.6580028935E+01
                       4.4765708449E+00  3.4409883285E+00  4.8457647045E+01
                       4.4765708449E+00  7.5776615903E+00  3.6580028935E+01
                       3.4765890481E+00  6.9568493321E-01  4.8457647045E+01
                       4.9999089842E-01  6.9568493321E-01  4.8457647045E+01
                       7.4531689946E+00  7.5776615903E+00  3.6580028935E+01
                       7.8444210234E+00  3.9225960400E+00  5.2502356880E+01
                       1.0873886961E-01  4.3507504835E+00  3.2535319100E+01
                       3.8678410769E+00  4.3507504835E+00  3.2535319100E+01
                       4.0853188161E+00  3.9225960400E+00  5.2502356880E+01
                       4.0853188161E+00  8.0592693017E+00  3.2535319100E+01
                       3.8678410769E+00  2.1407722177E-01  5.2502356880E+01
                       1.0873886961E-01  2.1407722177E-01  5.2502356880E+01
                       7.8444210234E+00  8.0592693017E+00  3.2535319100E+01
             xred      9.3335023344E-01  4.1198531572E-01  4.0294969401E-01
                       6.6649766560E-02  5.8801468428E-01  5.9705030599E-01
                       4.3335023344E-01  5.8801468428E-01  5.9705030599E-01
                       5.6664976656E-01  4.1198531572E-01  4.0294969401E-01
                       5.6664976656E-01  9.1198531572E-01  5.9705030599E-01
                       4.3335023344E-01  8.8014684280E-02  4.0294969401E-01
                       6.6649766560E-02  8.8014684280E-02  4.0294969401E-01
                       9.3335023344E-01  9.1198531572E-01  5.9705030599E-01
                       9.3746953043E-01  4.1688267832E-01  4.5814739739E-01
                       6.2530469570E-02  5.8311732168E-01  5.4185260261E-01
                       4.3746953043E-01  5.8311732168E-01  5.4185260261E-01
                       5.6253046957E-01  4.1688267832E-01  4.5814739739E-01
                       5.6253046957E-01  9.1688267832E-01  5.4185260261E-01
                       4.3746953043E-01  8.3117321680E-02  4.5814739739E-01
                       6.2530469570E-02  8.3117321680E-02  4.5814739739E-01
                       9.3746953043E-01  9.1688267832E-01  5.4185260261E-01
                       9.3729229735E-01  4.1659624273E-01  5.1394998400E-01
                       6.2707702650E-02  5.8340375727E-01  4.8605001600E-01
                       4.3729229735E-01  5.8340375727E-01  4.8605001600E-01
                       5.6270770265E-01  4.1659624273E-01  5.1394998400E-01
                       5.6270770265E-01  9.1659624273E-01  4.8605001600E-01
                       4.3729229735E-01  8.3403757269E-02  5.1394998400E-01
                       6.2707702650E-02  8.3403757269E-02  5.1394998400E-01
                       9.3729229735E-01  9.1659624273E-01  4.8605001600E-01
                       9.3713305087E-01  4.1591251119E-01  5.6983738662E-01
                       6.2866949130E-02  5.8408748881E-01  4.3016261338E-01
                       4.3713305087E-01  5.8408748881E-01  4.3016261338E-01
                       5.6286694913E-01  4.1591251119E-01  5.6983738662E-01
                       5.6286694913E-01  9.1591251119E-01  4.3016261338E-01
                       4.3713305087E-01  8.4087488810E-02  5.6983738662E-01
                       6.2866949130E-02  8.4087488810E-02  5.6983738662E-01
                       9.3713305087E-01  9.1591251119E-01  4.3016261338E-01
                       9.8632758915E-01  4.7412447053E-01  6.1740112573E-01
                       1.3672410850E-02  5.2587552947E-01  3.8259887427E-01
                       4.8632758915E-01  5.2587552947E-01  3.8259887427E-01
                       5.1367241085E-01  4.7412447053E-01  6.1740112573E-01
                       5.1367241085E-01  9.7412447053E-01  3.8259887427E-01
                       4.8632758915E-01  2.5875529468E-02  6.1740112573E-01
                       1.3672410850E-02  2.5875529468E-02  6.1740112573E-01
                       9.8632758915E-01  9.7412447053E-01  3.8259887427E-01
            znucl        6.00000    1.00000
 
================================================================================


- Timing analysis has been suppressed with timopt=0



================================================================================

 Suggested references for the acknowledgment of ABINIT usage.

 The users of ABINIT have little formal obligations with respect to the ABINIT group
 (those specified in the GNU General Public License, http://www.gnu.org/copyleft/gpl.txt).
 However, it is common practice in the scientific literature,
 to acknowledge the efforts of people that have made the research possible.
 In this spirit, please find below suggested citations of work written by ABINIT developers,
 corresponding to implementations inside of ABINIT that you have used in the present run.
 Note also that it will be of great value to readers of publications presenting these results,
 to read papers enabling them to understand the theoretical formalism and details
 of the ABINIT implementation.
 For information on why they are suggested, see also https://docs.abinit.org/theory/acknowledgments.
-
- [1] Libxc: A library of exchange and correlation functionals for density functional theory.
- M.A.L. Marques, M.J.T. Oliveira, T. Burnus, Computer Physics Communications 183, 2227 (2012).
- Comment: to be cited when LibXC is used (negative value of ixc)
- Strong suggestion to cite this paper.
- DOI and bibtex: see https://docs.abinit.org/theory/bibliography/#marques2012
-
- [2] Large scale ab initio calculations based on three levels of parallelization
- F. Bottin, S. Leroux, A. Knyazev, G. Zerah, Comput. Mat. Science 42, 329, (2008).
- Comment: in case LOBPCG algorithm is used (wfoptalg=4/14/114).
- Strong suggestion to cite this paper in your publications.
- This paper is also available at http://www.arxiv.org/abs/0707.3405
- DOI and bibtex: see https://docs.abinit.org/theory/bibliography/#bottin2008
-
- [3] The Abinit project: Impact, environment and recent developments.
- Computer Phys. Comm. 248, 107042 (2020).
- X.Gonze, B. Amadon, G. Antonius, F.Arnardi, L.Baguet, J.-M.Beuken,
- J.Bieder, F.Bottin, J.Bouchet, E.Bousquet, N.Brouwer, F.Bruneval,
- G.Brunin, T.Cavignac, J.-B. Charraud, Wei Chen, M.Cote, S.Cottenier,
- J.Denier, G.Geneste, Ph.Ghosez, M.Giantomassi, Y.Gillet, O.Gingras,
- D.R.Hamann, G.Hautier, Xu He, N.Helbig, N.Holzwarth, Y.Jia, F.Jollet,
- W.Lafargue-Dit-Hauret, K.Lejaeghere, M.A.L.Marques, A.Martin, C.Martins,
- H.P.C. Miranda, F.Naccarato, K. Persson, G.Petretto, V.Planes, Y.Pouillon,
- S.Prokhorenko, F.Ricci, G.-M.Rignanese, A.H.Romero, M.M.Schmitt, M.Torrent,
- M.J.van Setten, B.Van Troeye, M.J.Verstraete, G.Zerah and J.W.Zwanzig
- Comment: the fifth generic paper describing the ABINIT project.
- Note that a version of this paper, that is not formatted for Computer Phys. Comm. 
- is available at https://www.abinit.org/sites/default/files/ABINIT20.pdf .
- The licence allows the authors to put it on the Web.
- DOI and bibtex: see https://docs.abinit.org/theory/bibliography/#gonze2020
-
- [4] ABINIT: Overview, and focus on selected capabilities
- J. Chem. Phys. 152, 124102 (2020).
- A. Romero, D.C. Allan, B. Amadon, G. Antonius, T. Applencourt, L.Baguet,
- J.Bieder, F.Bottin, J.Bouchet, E.Bousquet, F.Bruneval,
- G.Brunin, D.Caliste, M.Cote,
- J.Denier, C. Dreyer, Ph.Ghosez, M.Giantomassi, Y.Gillet, O.Gingras,
- D.R.Hamann, G.Hautier, F.Jollet, G. Jomard,
- A.Martin, 
- H.P.C. Miranda, F.Naccarato, G.Petretto, N.A. Pike, V.Planes,
- S.Prokhorenko, T. Rangel, F.Ricci, G.-M.Rignanese, M.Royo, M.Stengel, M.Torrent,
- M.J.van Setten, B.Van Troeye, M.J.Verstraete, J.Wiktor, J.W.Zwanziger, and X.Gonze.
- Comment: a global overview of ABINIT, with focus on selected capabilities .
- Note that a version of this paper, that is not formatted for J. Chem. Phys 
- is available at https://www.abinit.org/sites/default/files/ABINIT20_JPC.pdf .
- The licence allows the authors to put it on the Web.
- DOI and bibtex: see https://docs.abinit.org/theory/bibliography/#romero2020
-
- [5] Recent developments in the ABINIT software package.
- Computer Phys. Comm. 205, 106 (2016).
- X.Gonze, F.Jollet, F.Abreu Araujo, D.Adams, B.Amadon, T.Applencourt,
- C.Audouze, J.-M.Beuken, J.Bieder, A.Bokhanchuk, E.Bousquet, F.Bruneval
- D.Caliste, M.Cote, F.Dahm, F.Da Pieve, M.Delaveau, M.Di Gennaro,
- B.Dorado, C.Espejo, G.Geneste, L.Genovese, A.Gerossier, M.Giantomassi,
- Y.Gillet, D.R.Hamann, L.He, G.Jomard, J.Laflamme Janssen, S.Le Roux,
- A.Levitt, A.Lherbier, F.Liu, I.Lukacevic, A.Martin, C.Martins,
- M.J.T.Oliveira, S.Ponce, Y.Pouillon, T.Rangel, G.-M.Rignanese,
- A.H.Romero, B.Rousseau, O.Rubel, A.A.Shukri, M.Stankovski, M.Torrent,
- M.J.Van Setten, B.Van Troeye, M.J.Verstraete, D.Waroquier, J.Wiktor,
- B.Xu, A.Zhou, J.W.Zwanziger.
- Comment: the fourth generic paper describing the ABINIT project.
- Note that a version of this paper, that is not formatted for Computer Phys. Comm. 
- is available at https://www.abinit.org/sites/default/files/ABINIT16.pdf .
- The licence allows the authors to put it on the Web.
- DOI and bibtex: see https://docs.abinit.org/theory/bibliography/#gonze2016
-
- Proc.   0 individual time (sec): cpu=      29022.2  wall=      29174.9
 
================================================================================
 
 Calculation completed.
.Delivered   0 WARNINGs and   2 COMMENTs to log file.
+Overall time at end (sec) : cpu=    1857382.0  wall=    1867180.8
