  ABINIT 9.7.2
  
 DeprecationWarning: 

     The files file has been deprecated in Abinit9 and will be removed in Abinit10.
     Use the syntax `abinit t01.abi` where t01.abi is an input with pseudopotentials e.g.

            pseudos = "al.psp8, as.psp8"


  Give name for formatted input file: 
./4H-2110_gw.abi
  Give name for formatted output file:
4H-2110_gw.abo
  Give root name for generic input files:
4H-2110_gw_i
  Give root name for generic output files:
4H-2110_gw_o
  Give root name for generic temporary files:
4H-2110_gw
 
--- !COMMENT
src_file: m_dtfil.F90
src_line: 1476
message: |
    Output file: 4H-2110_gw.abo already exists.
...
 
 
--- !COMMENT
src_file: m_dtfil.F90
src_line: 1500
message: |
    Renaming old: 4H-2110_gw.abo to: 4H-2110_gw.abo0005
...
 

.Version 9.7.2 of ABINIT 
.(MPI version, prepared for a x86_64_linux_intel2021.2 computer) 

.Copyright (C) 1998-2021 ABINIT group . 
 ABINIT comes with ABSOLUTELY NO WARRANTY.
 It is free software, and you are welcome to redistribute it
 under certain conditions (GNU General Public License,
 see ~abinit/COPYING or http://www.gnu.org/copyleft/gpl.txt).

 ABINIT is a project of the Universite Catholique de Louvain,
 Corning Inc. and other collaborators, see ~abinit/doc/developers/contributors.txt .
 Please read https://docs.abinit.org/theory/acknowledgments for suggested
 acknowledgments of the ABINIT effort.
 For more information, see https://www.abinit.org .

.Starting date : Sat  5 Mar 2022.
- ( at 00h19 )
  
 
 ++++++++++++++++++++++++++++++++++++++++++++++++++++++++++++++++++++++++++++++
 
 === Build Information === 
  Version       : 9.7.2
  Build target  : x86_64_linux_intel2021.2
  Build date    : 20211124
 
 === Compiler Suite === 
  C compiler       : intel2021.2
  C++ compiler     : gnu2021.2
  Fortran compiler : intel2021.2
  CFLAGS           : -O2 -g
  CXXFLAGS         : -O2 -g
  FCFLAGS          : -O2 -g   -I/home/ucl/modl/gmatteo/git_repos/abinit_rmms/_intel/fall ...
  FC_LDFLAGS       :   -static-intel -static-libgcc
 
 === Optimizations === 
  Debug level        : basic
  Optimization level : standard
  Architecture       : amd_epyc
 
 === Multicore === 
  Parallel build : yes
  Parallel I/O   : 
  openMP support : no
  GPU support    : 
 
 === Connectors / Fallbacks === 
  LINALG flavor  : mkl
  FFT flavor     : dfti
  HDF5           : yes
  NetCDF         : yes
  NetCDF Fortran : yes
  LibXC          : yes
  Wannier90      : no
 
 === Experimental features === 
  Exports             : 
  GW double-precision : 
 
 ++++++++++++++++++++++++++++++++++++++++++++++++++++++++++++++++++++++++++++++
 

 ++++++++++++++++++++++++++++++++++++++++++++++++++++++++++++++++++++++++++++++
 Default optimizations:
   --- None ---


 ++++++++++++++++++++++++++++++++++++++++++++++++++++++++++++++++++++++++++++++


 ++++++++++++++++++++++++++++++++++++++++++++++++++++++++++++++++++++++++++++++
 CPP options activated during the build:

                  CC_INTEL                   CXX_GNU                  FC_INTEL
 
                 HAVE_DFTI HAVE_FC_ALLOCATABLE_DT...             HAVE_FC_ASYNC
 
  HAVE_FC_COMMAND_ARGUMENT      HAVE_FC_COMMAND_LINE        HAVE_FC_CONTIGUOUS
 
           HAVE_FC_CPUTIME             HAVE_FC_ETIME              HAVE_FC_EXIT
 
             HAVE_FC_FLUSH             HAVE_FC_GAMMA            HAVE_FC_GETENV
 
            HAVE_FC_GETPID   HAVE_FC_IEEE_ARITHMETIC   HAVE_FC_IEEE_EXCEPTIONS
 
             HAVE_FC_IOMSG     HAVE_FC_ISO_C_BINDING  HAVE_FC_ISO_FORTRAN_2008
 
        HAVE_FC_LONG_LINES        HAVE_FC_MOVE_ALLOC  HAVE_FC_ON_THE_FLY_SHAPE
 
           HAVE_FC_PRIVATE         HAVE_FC_PROTECTED           HAVE_FC_SHIFTLR
 
         HAVE_FC_STREAM_IO            HAVE_FC_SYSTEM                 HAVE_HDF5
 
             HAVE_HDF5_MPI        HAVE_LIBPAW_ABINIT      HAVE_LIBTETRA_ABINIT
 
                HAVE_LIBXC         HAVE_LINALG_AXPBY        HAVE_LINALG_GEMM3M
 
         HAVE_LINALG_GEMMT  HAVE_LINALG_MKL_IMATCOPY   HAVE_LINALG_MKL_OMATADD
 
  HAVE_LINALG_MKL_OMATCOPY   HAVE_LINALG_MKL_THREADS                  HAVE_MPI
 
                 HAVE_MPI2       HAVE_MPI_IALLGATHER       HAVE_MPI_IALLREDUCE
 
        HAVE_MPI_IALLTOALL       HAVE_MPI_IALLTOALLV           HAVE_MPI_IBCAST
 
         HAVE_MPI_IGATHERV        HAVE_MPI_INTEGER16               HAVE_MPI_IO
 
 HAVE_MPI_TYPE_CREATE_S...               HAVE_NETCDF       HAVE_NETCDF_FORTRAN
 
   HAVE_NETCDF_FORTRAN_MPI           HAVE_NETCDF_MPI             HAVE_OS_LINUX
 
         HAVE_TIMER_ABINIT                                                      
 ++++++++++++++++++++++++++++++++++++++++++++++++++++++++++++++++++++++++++++++

- input  file    -> ./4H-2110_gw.abi
- output file    -> 4H-2110_gw.abo
- root for input  files -> 4H-2110_gw_i
- root for output files -> 4H-2110_gw_o
 
 Netcdf library supports MPI-IO
-instrng: 133 lines of input have been read from file ./4H-2110_gw.abi
 

 Please give name of formatted atomic psp file (and finish with a newline character)
 For atom type 1, psp file is ../6c.4.hgh

 Please give name of formatted atomic psp file (and finish with a newline character)
 For atom type 2, psp file is ../1h.1.hgh
  read the values zionpsp=  4.0 , pspcod=   3 , lmax=   1
  read the values zionpsp=  1.0 , pspcod=   3 , lmax=   0
 
 inpspheads: deduce mpsang = 2, n1xccc = 0.

======================================================= 
 invars1m : enter jdtset= 3
 
 symlatt: the Bravais lattice is oP (primitive orthorhombic)
  xred   is defined in input file
 ingeo: takes atomic coordinates from input array xred
 
--- !COMMENT
src_file: m_ingeo.F90
src_line: 900
message: |
    The tolerance on symmetries =   1.000E-04 is bigger than 1.0e-8.
    In order to avoid spurious effects, the atomic coordinates have been
    symmetrized before storing them in the dataset internal variable.
    So, do not be surprised by the fact that your input variables (xcart, xred, ...)
    do not correspond exactly to the ones echoed by ABINIT, the latter being used to do the calculations.
    This is not a problem per se.
    Still, in order to avoid this symmetrization (e.g. for specific debugging/development), decrease tolsym to 1.0e-8 or lower,
    or (much preferred) use input primitive vectors that are accurate to better than 1.0e-8.
    This message will only be printed once, even if there are other datasets where tolsym is bigger than 1.0e-8.
...
 
 
 symlatt: the Bravais lattice is oP (primitive orthorhombic)
 
 symlatt: the Bravais lattice is oP (primitive orthorhombic)
  symspgr: 55 or 57
 symspgr: spgroup=  57  Pb c m   (=D2h^11)

======================================================= 
 invars1m : enter jdtset= 4
 
 symlatt: the Bravais lattice is oP (primitive orthorhombic)
  xred   is defined in input file
 ingeo: takes atomic coordinates from input array xred
 
 symlatt: the Bravais lattice is oP (primitive orthorhombic)
 
 symlatt: the Bravais lattice is oP (primitive orthorhombic)
  symspgr: 55 or 57
 symspgr: spgroup=  57  Pb c m   (=D2h^11)
 
--- !COMMENT
src_file: m_gsphere.F90
src_line: 1644
message: |
    One of the three variables ecutsigx, npwsigx, or nshsigx
    must be non-null. Returning.
...
 
 
--- !COMMENT
src_file: m_gsphere.F90
src_line: 1644
message: |
    One of the three variables ecuteps, npweps, or nsheps
    must be non-null. Returning.
...
 
 
--- !WARNING
src_file: m_mpinfo.F90
src_line: 2495
message: |
    nproc_spkpt= 96 >= nkpt= 16* nsppol= 1
    The number of processors is larger than nkpt*nsppol. This is a waste. (Ignore this warning if this is not a GS run)
...
 
 For input ecut=  5.000000E+01 best grid ngfft=      54      54     576
       max ecut=  5.255752E+01
 
 ==== FFT mesh ====
  FFT mesh divisions ........................    54   54  576
  Augmented FFT divisions ...................    55   55  576
  FFT algorithm .............................   512
  FFT cache size ............................    16
 getmpw: optimal value of mpw= 94557
 
--- !WARNING
src_file: m_mpinfo.F90
src_line: 2495
message: |
    nproc_spkpt= 96 >= nkpt= 16* nsppol= 1
    The number of processors is larger than nkpt*nsppol. This is a waste. (Ignore this warning if this is not a GS run)
...
 
 For input ecut=  5.000000E+01 best grid ngfft=      54      54     576
       max ecut=  5.255752E+01
 
 ==== FFT mesh ====
  FFT mesh divisions ........................    54   54  576
  Augmented FFT divisions ...................    55   55  576
  FFT algorithm .............................   512
  FFT cache size ............................    16
 getmpw: optimal value of mpw= 94557
 
 DATASET    3 : space group Pb c m (# 57); Bravais oP (primitive ortho.)
 
 getdim_nloc : deduce lmnmax  =   1, lnmax  =   1,
                      lmnmaxso=   4, lnmaxso=   2.
memory: analysis of memory needs
================================================================================
 Values of the parameters that define the memory need for DATASET  3.
     intxc =       0    ionmov =       0      iscf =       7    lmnmax =       1
     lnmax =       1     mgfft =     576  mpssoang =       2    mqgrid =   27069
     natom =      40  nloc_mem =       1    nspden =       1   nspinor =       1
    nsppol =       1      nsym =       8    n1xccc =       0    ntypat =       2
    occopt =       1   xclevel =       2
-    mband =        1068        mffmem =           1         mkmem =           1
       mpw =       94557          nfft =     1679616          nkpt =          16
================================================================================
P This job should need less than                    2117.906 Mbytes of memory.
  Rough estimation (10% accuracy) of disk space for files :
_ WF disk file :  24655.001 Mbytes ; DEN or POT disk file :     12.816 Mbytes.
================================================================================
 
 Biggest array : cg(disk), with   1540.9394 MBytes.
 
 DATASET    4 : space group Pb c m (# 57); Bravais oP (primitive ortho.)
 
 getdim_nloc : deduce lmnmax  =   1, lnmax  =   1,
                      lmnmaxso=   4, lnmaxso=   2.
memory: analysis of memory needs
================================================================================
 Values of the parameters that define the memory need for DATASET  4.
     intxc =       0    ionmov =       0      iscf =       7    lmnmax =       1
     lnmax =       1     mgfft =     576  mpssoang =       2    mqgrid =   27069
     natom =      40  nloc_mem =       1    nspden =       1   nspinor =       1
    nsppol =       1      nsym =       8    n1xccc =       0    ntypat =       2
    occopt =       1   xclevel =       2
-    mband =        1602        mffmem =           1         mkmem =           1
       mpw =       94557          nfft =     1679616          nkpt =          16
================================================================================
P This job should need less than                    2930.293 Mbytes of memory.
  Rough estimation (10% accuracy) of disk space for files :
_ WF disk file :  36982.501 Mbytes ; DEN or POT disk file :     12.816 Mbytes.
================================================================================
 
 Biggest array : f_fftgr(disk), with    205.0333 MBytes.
--------------------------------------------------------------------------------
------------- Echo of variables that govern the present computation ------------
--------------------------------------------------------------------------------
-
- outvars: echo of selected default values                                      
-   iomode0 =  0 , fftalg0 =512 , wfoptalg0 =  0
-
- outvars: echo of global parameters not present in the input file              
-  max_nthreads =    0
-
 -outvars: echo values of preprocessed input variables --------
 
 These variables are accessible in NetCDF format (4H-2110_gw_o_OUT.nc)

            acell      7.9531598930E+00  8.2733465235E+00  8.5037675980E+01 Bohr
              amu      1.20110000E+01  1.00794000E+00
             bdgw4         66      69
          chkprim           0
           diemac      1.20000000E+01
             ecut      5.00000000E+01 Hartree
          ecuteps3     5.00000000E+00 Hartree
          ecuteps4     0.00000000E+00 Hartree
         ecutsigx3     0.00000000E+00 Hartree
         ecutsigx4     2.50000000E+01 Hartree
          ecutwfn      5.00000000E+01 Hartree
-          fftalg         512
           getscr3          0
           getscr4          3
           getwfk           2
      gw_icutcoul           2
           istwfk        1    0    0    1    0    0    0    0    0    0
                         0    0    1    0    0    1
              ixc     -208012
           jdtset        3    4
              kpt      0.00000000E+00  0.00000000E+00  0.00000000E+00
                       1.66666667E-01  0.00000000E+00  0.00000000E+00
                       3.33333333E-01  0.00000000E+00  0.00000000E+00
                       5.00000000E-01  0.00000000E+00  0.00000000E+00
                       0.00000000E+00  1.66666667E-01  0.00000000E+00
                       1.66666667E-01  1.66666667E-01  0.00000000E+00
                       3.33333333E-01  1.66666667E-01  0.00000000E+00
                       5.00000000E-01  1.66666667E-01  0.00000000E+00
                       0.00000000E+00  3.33333333E-01  0.00000000E+00
                       1.66666667E-01  3.33333333E-01  0.00000000E+00
                       3.33333333E-01  3.33333333E-01  0.00000000E+00
                       5.00000000E-01  3.33333333E-01  0.00000000E+00
                       0.00000000E+00  5.00000000E-01  0.00000000E+00
                       1.66666667E-01  5.00000000E-01  0.00000000E+00
                       3.33333333E-01  5.00000000E-01  0.00000000E+00
                       5.00000000E-01  5.00000000E-01  0.00000000E+00
            kptgw4     0.00000000E+00  0.00000000E+00  0.00000000E+00
         kptrlatt        6    0    0      0    6    0      0    0    1
          kptrlen      4.77189594E+01
P           mkmem           1
            natom          40
            nband3       1068
            nband4       1602
           ndtset           2
            ngfft          54      54     576
             nkpt          16
           nkptgw3          0
           nkptgw4          1
           npweps3       2933
           npweps4          0
          npwsigx3          0
          npwsigx4      33313
           npwwfn       94557
            nstep         100
             nsym           8
           ntypat           2
              occ3     2.000000  2.000000  2.000000  2.000000  2.000000  2.000000
                       2.000000  2.000000  2.000000  2.000000  2.000000  2.000000
                       2.000000  2.000000  2.000000  2.000000  2.000000  2.000000
                       2.000000  2.000000  2.000000  2.000000  2.000000  2.000000
                       2.000000  2.000000  2.000000  2.000000  2.000000  2.000000
                       2.000000  2.000000  2.000000  2.000000  2.000000  2.000000
                       2.000000  2.000000  2.000000  2.000000  2.000000  2.000000
                       2.000000  2.000000  2.000000  2.000000  2.000000  2.000000
                       2.000000  2.000000  2.000000  2.000000  2.000000  2.000000
                       2.000000  2.000000  2.000000  2.000000  2.000000  2.000000
                       2.000000  2.000000  2.000000  2.000000  2.000000  2.000000
                       2.000000  2.000000  0.000000  0.000000  0.000000  0.000000
                       0.000000  0.000000  0.000000  0.000000  0.000000  0.000000
                       0.000000  0.000000  0.000000  0.000000  0.000000  0.000000
                       0.000000  0.000000  0.000000  0.000000  0.000000  0.000000
                       0.000000  0.000000  0.000000  0.000000  0.000000  0.000000
                       0.000000  0.000000  0.000000  0.000000  0.000000  0.000000
                       0.000000  0.000000  0.000000  0.000000  0.000000  0.000000
                       0.000000  0.000000  0.000000  0.000000  0.000000  0.000000
                       0.000000  0.000000  0.000000  0.000000  0.000000  0.000000
                       0.000000  0.000000  0.000000  0.000000  0.000000  0.000000
                       0.000000  0.000000  0.000000  0.000000  0.000000  0.000000
                       0.000000  0.000000  0.000000  0.000000  0.000000  0.000000
                       0.000000  0.000000  0.000000  0.000000  0.000000  0.000000
                       0.000000  0.000000  0.000000  0.000000  0.000000  0.000000
                       0.000000  0.000000  0.000000  0.000000  0.000000  0.000000
                       0.000000  0.000000  0.000000  0.000000  0.000000  0.000000
                       0.000000  0.000000  0.000000  0.000000  0.000000  0.000000
                       0.000000  0.000000  0.000000  0.000000  0.000000  0.000000
                       0.000000  0.000000  0.000000  0.000000  0.000000  0.000000
                       0.000000  0.000000  0.000000  0.000000  0.000000  0.000000
                       0.000000  0.000000  0.000000  0.000000  0.000000  0.000000
                       0.000000  0.000000  0.000000  0.000000  0.000000  0.000000
                       0.000000  0.000000  0.000000  0.000000  0.000000  0.000000
                       0.000000  0.000000  0.000000  0.000000  0.000000  0.000000
                       0.000000  0.000000  0.000000  0.000000  0.000000  0.000000
                       0.000000  0.000000  0.000000  0.000000  0.000000  0.000000
                       0.000000  0.000000  0.000000  0.000000  0.000000  0.000000
                       0.000000  0.000000  0.000000  0.000000  0.000000  0.000000
                       0.000000  0.000000  0.000000  0.000000  0.000000  0.000000
                       0.000000  0.000000  0.000000  0.000000  0.000000  0.000000
                       0.000000  0.000000  0.000000  0.000000  0.000000  0.000000
                       0.000000  0.000000  0.000000  0.000000  0.000000  0.000000
                       0.000000  0.000000  0.000000  0.000000  0.000000  0.000000
                       0.000000  0.000000  0.000000  0.000000  0.000000  0.000000
                       0.000000  0.000000  0.000000  0.000000  0.000000  0.000000
                       0.000000  0.000000  0.000000  0.000000  0.000000  0.000000
                       0.000000  0.000000  0.000000  0.000000  0.000000  0.000000
                       0.000000  0.000000  0.000000  0.000000  0.000000  0.000000
                       0.000000  0.000000  0.000000  0.000000  0.000000  0.000000
                       0.000000  0.000000  0.000000  0.000000  0.000000  0.000000
                       0.000000  0.000000  0.000000  0.000000  0.000000  0.000000
                       0.000000  0.000000  0.000000  0.000000  0.000000  0.000000
                       0.000000  0.000000  0.000000  0.000000  0.000000  0.000000
                       0.000000  0.000000  0.000000  0.000000  0.000000  0.000000
                       0.000000  0.000000  0.000000  0.000000  0.000000  0.000000
                       0.000000  0.000000  0.000000  0.000000  0.000000  0.000000
                       0.000000  0.000000  0.000000  0.000000  0.000000  0.000000
                       0.000000  0.000000  0.000000  0.000000  0.000000  0.000000
                       0.000000  0.000000  0.000000  0.000000  0.000000  0.000000
                       0.000000  0.000000  0.000000  0.000000  0.000000  0.000000
                       0.000000  0.000000  0.000000  0.000000  0.000000  0.000000
                       0.000000  0.000000  0.000000  0.000000  0.000000  0.000000
                       0.000000  0.000000  0.000000  0.000000  0.000000  0.000000
                       0.000000  0.000000  0.000000  0.000000  0.000000  0.000000
                       0.000000  0.000000  0.000000  0.000000  0.000000  0.000000
                       0.000000  0.000000  0.000000  0.000000  0.000000  0.000000
                       0.000000  0.000000  0.000000  0.000000  0.000000  0.000000
                       0.000000  0.000000  0.000000  0.000000  0.000000  0.000000
                       0.000000  0.000000  0.000000  0.000000  0.000000  0.000000
                       0.000000  0.000000  0.000000  0.000000  0.000000  0.000000
                       0.000000  0.000000  0.000000  0.000000  0.000000  0.000000
                       0.000000  0.000000  0.000000  0.000000  0.000000  0.000000
                       0.000000  0.000000  0.000000  0.000000  0.000000  0.000000
                       0.000000  0.000000  0.000000  0.000000  0.000000  0.000000
                       0.000000  0.000000  0.000000  0.000000  0.000000  0.000000
                       0.000000  0.000000  0.000000  0.000000  0.000000  0.000000
                       0.000000  0.000000  0.000000  0.000000  0.000000  0.000000
                       0.000000  0.000000  0.000000  0.000000  0.000000  0.000000
                       0.000000  0.000000  0.000000  0.000000  0.000000  0.000000
                       0.000000  0.000000  0.000000  0.000000  0.000000  0.000000
                       0.000000  0.000000  0.000000  0.000000  0.000000  0.000000
                       0.000000  0.000000  0.000000  0.000000  0.000000  0.000000
                       0.000000  0.000000  0.000000  0.000000  0.000000  0.000000
                       0.000000  0.000000  0.000000  0.000000  0.000000  0.000000
                       0.000000  0.000000  0.000000  0.000000  0.000000  0.000000
                       0.000000  0.000000  0.000000  0.000000  0.000000  0.000000
                       0.000000  0.000000  0.000000  0.000000  0.000000  0.000000
                       0.000000  0.000000  0.000000  0.000000  0.000000  0.000000
                       0.000000  0.000000  0.000000  0.000000  0.000000  0.000000
                       0.000000  0.000000  0.000000  0.000000  0.000000  0.000000
                       0.000000  0.000000  0.000000  0.000000  0.000000  0.000000
                       0.000000  0.000000  0.000000  0.000000  0.000000  0.000000
                       0.000000  0.000000  0.000000  0.000000  0.000000  0.000000
                       0.000000  0.000000  0.000000  0.000000  0.000000  0.000000
                       0.000000  0.000000  0.000000  0.000000  0.000000  0.000000
                       0.000000  0.000000  0.000000  0.000000  0.000000  0.000000
                       0.000000  0.000000  0.000000  0.000000  0.000000  0.000000
                       0.000000  0.000000  0.000000  0.000000  0.000000  0.000000
                       0.000000  0.000000  0.000000  0.000000  0.000000  0.000000
                       0.000000  0.000000  0.000000  0.000000  0.000000  0.000000
                       0.000000  0.000000  0.000000  0.000000  0.000000  0.000000
                       0.000000  0.000000  0.000000  0.000000  0.000000  0.000000
                       0.000000  0.000000  0.000000  0.000000  0.000000  0.000000
                       0.000000  0.000000  0.000000  0.000000  0.000000  0.000000
                       0.000000  0.000000  0.000000  0.000000  0.000000  0.000000
                       0.000000  0.000000  0.000000  0.000000  0.000000  0.000000
                       0.000000  0.000000  0.000000  0.000000  0.000000  0.000000
                       0.000000  0.000000  0.000000  0.000000  0.000000  0.000000
                       0.000000  0.000000  0.000000  0.000000  0.000000  0.000000
                       0.000000  0.000000  0.000000  0.000000  0.000000  0.000000
                       0.000000  0.000000  0.000000  0.000000  0.000000  0.000000
                       0.000000  0.000000  0.000000  0.000000  0.000000  0.000000
                       0.000000  0.000000  0.000000  0.000000  0.000000  0.000000
                       0.000000  0.000000  0.000000  0.000000  0.000000  0.000000
                       0.000000  0.000000  0.000000  0.000000  0.000000  0.000000
                       0.000000  0.000000  0.000000  0.000000  0.000000  0.000000
                       0.000000  0.000000  0.000000  0.000000  0.000000  0.000000
                       0.000000  0.000000  0.000000  0.000000  0.000000  0.000000
                       0.000000  0.000000  0.000000  0.000000  0.000000  0.000000
                       0.000000  0.000000  0.000000  0.000000  0.000000  0.000000
                       0.000000  0.000000  0.000000  0.000000  0.000000  0.000000
                       0.000000  0.000000  0.000000  0.000000  0.000000  0.000000
                       0.000000  0.000000  0.000000  0.000000  0.000000  0.000000
                       0.000000  0.000000  0.000000  0.000000  0.000000  0.000000
                       0.000000  0.000000  0.000000  0.000000  0.000000  0.000000
                       0.000000  0.000000  0.000000  0.000000  0.000000  0.000000
                       0.000000  0.000000  0.000000  0.000000  0.000000  0.000000
                       0.000000  0.000000  0.000000  0.000000  0.000000  0.000000
                       0.000000  0.000000  0.000000  0.000000  0.000000  0.000000
                       0.000000  0.000000  0.000000  0.000000  0.000000  0.000000
                       0.000000  0.000000  0.000000  0.000000  0.000000  0.000000
                       0.000000  0.000000  0.000000  0.000000  0.000000  0.000000
                       0.000000  0.000000  0.000000  0.000000  0.000000  0.000000
                       0.000000  0.000000  0.000000  0.000000  0.000000  0.000000
                       0.000000  0.000000  0.000000  0.000000  0.000000  0.000000
                       0.000000  0.000000  0.000000  0.000000  0.000000  0.000000
                       0.000000  0.000000  0.000000  0.000000  0.000000  0.000000
                       0.000000  0.000000  0.000000  0.000000  0.000000  0.000000
                       0.000000  0.000000  0.000000  0.000000  0.000000  0.000000
                       0.000000  0.000000  0.000000  0.000000  0.000000  0.000000
                       0.000000  0.000000  0.000000  0.000000  0.000000  0.000000
                       0.000000  0.000000  0.000000  0.000000  0.000000  0.000000
                       0.000000  0.000000  0.000000  0.000000  0.000000  0.000000
                       0.000000  0.000000  0.000000  0.000000  0.000000  0.000000
                       0.000000  0.000000  0.000000  0.000000  0.000000  0.000000
                       0.000000  0.000000  0.000000  0.000000  0.000000  0.000000
                       0.000000  0.000000  0.000000  0.000000  0.000000  0.000000
                       0.000000  0.000000  0.000000  0.000000  0.000000  0.000000
                       0.000000  0.000000  0.000000  0.000000  0.000000  0.000000
                       0.000000  0.000000  0.000000  0.000000  0.000000  0.000000
                       0.000000  0.000000  0.000000  0.000000  0.000000  0.000000
                       0.000000  0.000000  0.000000  0.000000  0.000000  0.000000
                       0.000000  0.000000  0.000000  0.000000  0.000000  0.000000
                       0.000000  0.000000  0.000000  0.000000  0.000000  0.000000
                       0.000000  0.000000  0.000000  0.000000  0.000000  0.000000
                       0.000000  0.000000  0.000000  0.000000  0.000000  0.000000
                       0.000000  0.000000  0.000000  0.000000  0.000000  0.000000
                       0.000000  0.000000  0.000000  0.000000  0.000000  0.000000
                       0.000000  0.000000  0.000000  0.000000  0.000000  0.000000
                       0.000000  0.000000  0.000000  0.000000  0.000000  0.000000
                       0.000000  0.000000  0.000000  0.000000  0.000000  0.000000
                       0.000000  0.000000  0.000000  0.000000  0.000000  0.000000
                       0.000000  0.000000  0.000000  0.000000  0.000000  0.000000
                       0.000000  0.000000  0.000000  0.000000  0.000000  0.000000
                       0.000000  0.000000  0.000000  0.000000  0.000000  0.000000
                       0.000000  0.000000  0.000000  0.000000  0.000000  0.000000
                       0.000000  0.000000  0.000000  0.000000  0.000000  0.000000
                       0.000000  0.000000  0.000000  0.000000  0.000000  0.000000
                       0.000000  0.000000  0.000000  0.000000  0.000000  0.000000
                       0.000000  0.000000  0.000000  0.000000  0.000000  0.000000
                       0.000000  0.000000  0.000000  0.000000  0.000000  0.000000
                       0.000000  0.000000  0.000000  0.000000  0.000000  0.000000
                       0.000000  0.000000  0.000000  0.000000  0.000000  0.000000
                       0.000000  0.000000  0.000000  0.000000  0.000000  0.000000
                       0.000000  0.000000  0.000000  0.000000  0.000000  0.000000
                       0.000000  0.000000  0.000000  0.000000  0.000000  0.000000
                       0.000000  0.000000  0.000000  0.000000  0.000000  0.000000
              occ4     2.000000  2.000000  2.000000  2.000000  2.000000  2.000000
                       2.000000  2.000000  2.000000  2.000000  2.000000  2.000000
                       2.000000  2.000000  2.000000  2.000000  2.000000  2.000000
                       2.000000  2.000000  2.000000  2.000000  2.000000  2.000000
                       2.000000  2.000000  2.000000  2.000000  2.000000  2.000000
                       2.000000  2.000000  2.000000  2.000000  2.000000  2.000000
                       2.000000  2.000000  2.000000  2.000000  2.000000  2.000000
                       2.000000  2.000000  2.000000  2.000000  2.000000  2.000000
                       2.000000  2.000000  2.000000  2.000000  2.000000  2.000000
                       2.000000  2.000000  2.000000  2.000000  2.000000  2.000000
                       2.000000  2.000000  2.000000  2.000000  2.000000  2.000000
                       2.000000  2.000000  0.000000  0.000000  0.000000  0.000000
                       0.000000  0.000000  0.000000  0.000000  0.000000  0.000000
                       0.000000  0.000000  0.000000  0.000000  0.000000  0.000000
                       0.000000  0.000000  0.000000  0.000000  0.000000  0.000000
                       0.000000  0.000000  0.000000  0.000000  0.000000  0.000000
                       0.000000  0.000000  0.000000  0.000000  0.000000  0.000000
                       0.000000  0.000000  0.000000  0.000000  0.000000  0.000000
                       0.000000  0.000000  0.000000  0.000000  0.000000  0.000000
                       0.000000  0.000000  0.000000  0.000000  0.000000  0.000000
                       0.000000  0.000000  0.000000  0.000000  0.000000  0.000000
                       0.000000  0.000000  0.000000  0.000000  0.000000  0.000000
                       0.000000  0.000000  0.000000  0.000000  0.000000  0.000000
                       0.000000  0.000000  0.000000  0.000000  0.000000  0.000000
                       0.000000  0.000000  0.000000  0.000000  0.000000  0.000000
                       0.000000  0.000000  0.000000  0.000000  0.000000  0.000000
                       0.000000  0.000000  0.000000  0.000000  0.000000  0.000000
                       0.000000  0.000000  0.000000  0.000000  0.000000  0.000000
                       0.000000  0.000000  0.000000  0.000000  0.000000  0.000000
                       0.000000  0.000000  0.000000  0.000000  0.000000  0.000000
                       0.000000  0.000000  0.000000  0.000000  0.000000  0.000000
                       0.000000  0.000000  0.000000  0.000000  0.000000  0.000000
                       0.000000  0.000000  0.000000  0.000000  0.000000  0.000000
                       0.000000  0.000000  0.000000  0.000000  0.000000  0.000000
                       0.000000  0.000000  0.000000  0.000000  0.000000  0.000000
                       0.000000  0.000000  0.000000  0.000000  0.000000  0.000000
                       0.000000  0.000000  0.000000  0.000000  0.000000  0.000000
                       0.000000  0.000000  0.000000  0.000000  0.000000  0.000000
                       0.000000  0.000000  0.000000  0.000000  0.000000  0.000000
                       0.000000  0.000000  0.000000  0.000000  0.000000  0.000000
                       0.000000  0.000000  0.000000  0.000000  0.000000  0.000000
                       0.000000  0.000000  0.000000  0.000000  0.000000  0.000000
                       0.000000  0.000000  0.000000  0.000000  0.000000  0.000000
                       0.000000  0.000000  0.000000  0.000000  0.000000  0.000000
                       0.000000  0.000000  0.000000  0.000000  0.000000  0.000000
                       0.000000  0.000000  0.000000  0.000000  0.000000  0.000000
                       0.000000  0.000000  0.000000  0.000000  0.000000  0.000000
                       0.000000  0.000000  0.000000  0.000000  0.000000  0.000000
                       0.000000  0.000000  0.000000  0.000000  0.000000  0.000000
                       0.000000  0.000000  0.000000  0.000000  0.000000  0.000000
                       0.000000  0.000000  0.000000  0.000000  0.000000  0.000000
                       0.000000  0.000000  0.000000  0.000000  0.000000  0.000000
                       0.000000  0.000000  0.000000  0.000000  0.000000  0.000000
                       0.000000  0.000000  0.000000  0.000000  0.000000  0.000000
                       0.000000  0.000000  0.000000  0.000000  0.000000  0.000000
                       0.000000  0.000000  0.000000  0.000000  0.000000  0.000000
                       0.000000  0.000000  0.000000  0.000000  0.000000  0.000000
                       0.000000  0.000000  0.000000  0.000000  0.000000  0.000000
                       0.000000  0.000000  0.000000  0.000000  0.000000  0.000000
                       0.000000  0.000000  0.000000  0.000000  0.000000  0.000000
                       0.000000  0.000000  0.000000  0.000000  0.000000  0.000000
                       0.000000  0.000000  0.000000  0.000000  0.000000  0.000000
                       0.000000  0.000000  0.000000  0.000000  0.000000  0.000000
                       0.000000  0.000000  0.000000  0.000000  0.000000  0.000000
                       0.000000  0.000000  0.000000  0.000000  0.000000  0.000000
                       0.000000  0.000000  0.000000  0.000000  0.000000  0.000000
                       0.000000  0.000000  0.000000  0.000000  0.000000  0.000000
                       0.000000  0.000000  0.000000  0.000000  0.000000  0.000000
                       0.000000  0.000000  0.000000  0.000000  0.000000  0.000000
                       0.000000  0.000000  0.000000  0.000000  0.000000  0.000000
                       0.000000  0.000000  0.000000  0.000000  0.000000  0.000000
                       0.000000  0.000000  0.000000  0.000000  0.000000  0.000000
                       0.000000  0.000000  0.000000  0.000000  0.000000  0.000000
                       0.000000  0.000000  0.000000  0.000000  0.000000  0.000000
                       0.000000  0.000000  0.000000  0.000000  0.000000  0.000000
                       0.000000  0.000000  0.000000  0.000000  0.000000  0.000000
                       0.000000  0.000000  0.000000  0.000000  0.000000  0.000000
                       0.000000  0.000000  0.000000  0.000000  0.000000  0.000000
                       0.000000  0.000000  0.000000  0.000000  0.000000  0.000000
                       0.000000  0.000000  0.000000  0.000000  0.000000  0.000000
                       0.000000  0.000000  0.000000  0.000000  0.000000  0.000000
                       0.000000  0.000000  0.000000  0.000000  0.000000  0.000000
                       0.000000  0.000000  0.000000  0.000000  0.000000  0.000000
                       0.000000  0.000000  0.000000  0.000000  0.000000  0.000000
                       0.000000  0.000000  0.000000  0.000000  0.000000  0.000000
                       0.000000  0.000000  0.000000  0.000000  0.000000  0.000000
                       0.000000  0.000000  0.000000  0.000000  0.000000  0.000000
                       0.000000  0.000000  0.000000  0.000000  0.000000  0.000000
                       0.000000  0.000000  0.000000  0.000000  0.000000  0.000000
                       0.000000  0.000000  0.000000  0.000000  0.000000  0.000000
                       0.000000  0.000000  0.000000  0.000000  0.000000  0.000000
                       0.000000  0.000000  0.000000  0.000000  0.000000  0.000000
                       0.000000  0.000000  0.000000  0.000000  0.000000  0.000000
                       0.000000  0.000000  0.000000  0.000000  0.000000  0.000000
                       0.000000  0.000000  0.000000  0.000000  0.000000  0.000000
                       0.000000  0.000000  0.000000  0.000000  0.000000  0.000000
                       0.000000  0.000000  0.000000  0.000000  0.000000  0.000000
                       0.000000  0.000000  0.000000  0.000000  0.000000  0.000000
                       0.000000  0.000000  0.000000  0.000000  0.000000  0.000000
                       0.000000  0.000000  0.000000  0.000000  0.000000  0.000000
                       0.000000  0.000000  0.000000  0.000000  0.000000  0.000000
                       0.000000  0.000000  0.000000  0.000000  0.000000  0.000000
                       0.000000  0.000000  0.000000  0.000000  0.000000  0.000000
                       0.000000  0.000000  0.000000  0.000000  0.000000  0.000000
                       0.000000  0.000000  0.000000  0.000000  0.000000  0.000000
                       0.000000  0.000000  0.000000  0.000000  0.000000  0.000000
                       0.000000  0.000000  0.000000  0.000000  0.000000  0.000000
                       0.000000  0.000000  0.000000  0.000000  0.000000  0.000000
                       0.000000  0.000000  0.000000  0.000000  0.000000  0.000000
                       0.000000  0.000000  0.000000  0.000000  0.000000  0.000000
                       0.000000  0.000000  0.000000  0.000000  0.000000  0.000000
                       0.000000  0.000000  0.000000  0.000000  0.000000  0.000000
                       0.000000  0.000000  0.000000  0.000000  0.000000  0.000000
                       0.000000  0.000000  0.000000  0.000000  0.000000  0.000000
                       0.000000  0.000000  0.000000  0.000000  0.000000  0.000000
                       0.000000  0.000000  0.000000  0.000000  0.000000  0.000000
                       0.000000  0.000000  0.000000  0.000000  0.000000  0.000000
                       0.000000  0.000000  0.000000  0.000000  0.000000  0.000000
                       0.000000  0.000000  0.000000  0.000000  0.000000  0.000000
                       0.000000  0.000000  0.000000  0.000000  0.000000  0.000000
                       0.000000  0.000000  0.000000  0.000000  0.000000  0.000000
                       0.000000  0.000000  0.000000  0.000000  0.000000  0.000000
                       0.000000  0.000000  0.000000  0.000000  0.000000  0.000000
                       0.000000  0.000000  0.000000  0.000000  0.000000  0.000000
                       0.000000  0.000000  0.000000  0.000000  0.000000  0.000000
                       0.000000  0.000000  0.000000  0.000000  0.000000  0.000000
                       0.000000  0.000000  0.000000  0.000000  0.000000  0.000000
                       0.000000  0.000000  0.000000  0.000000  0.000000  0.000000
                       0.000000  0.000000  0.000000  0.000000  0.000000  0.000000
                       0.000000  0.000000  0.000000  0.000000  0.000000  0.000000
                       0.000000  0.000000  0.000000  0.000000  0.000000  0.000000
                       0.000000  0.000000  0.000000  0.000000  0.000000  0.000000
                       0.000000  0.000000  0.000000  0.000000  0.000000  0.000000
                       0.000000  0.000000  0.000000  0.000000  0.000000  0.000000
                       0.000000  0.000000  0.000000  0.000000  0.000000  0.000000
                       0.000000  0.000000  0.000000  0.000000  0.000000  0.000000
                       0.000000  0.000000  0.000000  0.000000  0.000000  0.000000
                       0.000000  0.000000  0.000000  0.000000  0.000000  0.000000
                       0.000000  0.000000  0.000000  0.000000  0.000000  0.000000
                       0.000000  0.000000  0.000000  0.000000  0.000000  0.000000
                       0.000000  0.000000  0.000000  0.000000  0.000000  0.000000
                       0.000000  0.000000  0.000000  0.000000  0.000000  0.000000
                       0.000000  0.000000  0.000000  0.000000  0.000000  0.000000
                       0.000000  0.000000  0.000000  0.000000  0.000000  0.000000
                       0.000000  0.000000  0.000000  0.000000  0.000000  0.000000
                       0.000000  0.000000  0.000000  0.000000  0.000000  0.000000
                       0.000000  0.000000  0.000000  0.000000  0.000000  0.000000
                       0.000000  0.000000  0.000000  0.000000  0.000000  0.000000
                       0.000000  0.000000  0.000000  0.000000  0.000000  0.000000
                       0.000000  0.000000  0.000000  0.000000  0.000000  0.000000
                       0.000000  0.000000  0.000000  0.000000  0.000000  0.000000
                       0.000000  0.000000  0.000000  0.000000  0.000000  0.000000
                       0.000000  0.000000  0.000000  0.000000  0.000000  0.000000
                       0.000000  0.000000  0.000000  0.000000  0.000000  0.000000
                       0.000000  0.000000  0.000000  0.000000  0.000000  0.000000
                       0.000000  0.000000  0.000000  0.000000  0.000000  0.000000
                       0.000000  0.000000  0.000000  0.000000  0.000000  0.000000
                       0.000000  0.000000  0.000000  0.000000  0.000000  0.000000
                       0.000000  0.000000  0.000000  0.000000  0.000000  0.000000
                       0.000000  0.000000  0.000000  0.000000  0.000000  0.000000
                       0.000000  0.000000  0.000000  0.000000  0.000000  0.000000
                       0.000000  0.000000  0.000000  0.000000  0.000000  0.000000
                       0.000000  0.000000  0.000000  0.000000  0.000000  0.000000
                       0.000000  0.000000  0.000000  0.000000  0.000000  0.000000
                       0.000000  0.000000  0.000000  0.000000  0.000000  0.000000
                       0.000000  0.000000  0.000000  0.000000  0.000000  0.000000
                       0.000000  0.000000  0.000000  0.000000  0.000000  0.000000
                       0.000000  0.000000  0.000000  0.000000  0.000000  0.000000
                       0.000000  0.000000  0.000000  0.000000  0.000000  0.000000
                       0.000000  0.000000  0.000000  0.000000  0.000000  0.000000
                       0.000000  0.000000  0.000000  0.000000  0.000000  0.000000
                       0.000000  0.000000  0.000000  0.000000  0.000000  0.000000
                       0.000000  0.000000  0.000000  0.000000  0.000000  0.000000
                       0.000000  0.000000  0.000000  0.000000  0.000000  0.000000
                       0.000000  0.000000  0.000000  0.000000  0.000000  0.000000
                       0.000000  0.000000  0.000000  0.000000  0.000000  0.000000
                       0.000000  0.000000  0.000000  0.000000  0.000000  0.000000
                       0.000000  0.000000  0.000000  0.000000  0.000000  0.000000
                       0.000000  0.000000  0.000000  0.000000  0.000000  0.000000
                       0.000000  0.000000  0.000000  0.000000  0.000000  0.000000
                       0.000000  0.000000  0.000000  0.000000  0.000000  0.000000
                       0.000000  0.000000  0.000000  0.000000  0.000000  0.000000
                       0.000000  0.000000  0.000000  0.000000  0.000000  0.000000
                       0.000000  0.000000  0.000000  0.000000  0.000000  0.000000
                       0.000000  0.000000  0.000000  0.000000  0.000000  0.000000
                       0.000000  0.000000  0.000000  0.000000  0.000000  0.000000
                       0.000000  0.000000  0.000000  0.000000  0.000000  0.000000
                       0.000000  0.000000  0.000000  0.000000  0.000000  0.000000
                       0.000000  0.000000  0.000000  0.000000  0.000000  0.000000
                       0.000000  0.000000  0.000000  0.000000  0.000000  0.000000
                       0.000000  0.000000  0.000000  0.000000  0.000000  0.000000
                       0.000000  0.000000  0.000000  0.000000  0.000000  0.000000
                       0.000000  0.000000  0.000000  0.000000  0.000000  0.000000
                       0.000000  0.000000  0.000000  0.000000  0.000000  0.000000
                       0.000000  0.000000  0.000000  0.000000  0.000000  0.000000
                       0.000000  0.000000  0.000000  0.000000  0.000000  0.000000
                       0.000000  0.000000  0.000000  0.000000  0.000000  0.000000
                       0.000000  0.000000  0.000000  0.000000  0.000000  0.000000
                       0.000000  0.000000  0.000000  0.000000  0.000000  0.000000
                       0.000000  0.000000  0.000000  0.000000  0.000000  0.000000
                       0.000000  0.000000  0.000000  0.000000  0.000000  0.000000
                       0.000000  0.000000  0.000000  0.000000  0.000000  0.000000
                       0.000000  0.000000  0.000000  0.000000  0.000000  0.000000
                       0.000000  0.000000  0.000000  0.000000  0.000000  0.000000
                       0.000000  0.000000  0.000000  0.000000  0.000000  0.000000
                       0.000000  0.000000  0.000000  0.000000  0.000000  0.000000
                       0.000000  0.000000  0.000000  0.000000  0.000000  0.000000
                       0.000000  0.000000  0.000000  0.000000  0.000000  0.000000
                       0.000000  0.000000  0.000000  0.000000  0.000000  0.000000
                       0.000000  0.000000  0.000000  0.000000  0.000000  0.000000
                       0.000000  0.000000  0.000000  0.000000  0.000000  0.000000
                       0.000000  0.000000  0.000000  0.000000  0.000000  0.000000
                       0.000000  0.000000  0.000000  0.000000  0.000000  0.000000
                       0.000000  0.000000  0.000000  0.000000  0.000000  0.000000
                       0.000000  0.000000  0.000000  0.000000  0.000000  0.000000
                       0.000000  0.000000  0.000000  0.000000  0.000000  0.000000
                       0.000000  0.000000  0.000000  0.000000  0.000000  0.000000
                       0.000000  0.000000  0.000000  0.000000  0.000000  0.000000
                       0.000000  0.000000  0.000000  0.000000  0.000000  0.000000
                       0.000000  0.000000  0.000000  0.000000  0.000000  0.000000
                       0.000000  0.000000  0.000000  0.000000  0.000000  0.000000
                       0.000000  0.000000  0.000000  0.000000  0.000000  0.000000
                       0.000000  0.000000  0.000000  0.000000  0.000000  0.000000
                       0.000000  0.000000  0.000000  0.000000  0.000000  0.000000
                       0.000000  0.000000  0.000000  0.000000  0.000000  0.000000
                       0.000000  0.000000  0.000000  0.000000  0.000000  0.000000
                       0.000000  0.000000  0.000000  0.000000  0.000000  0.000000
                       0.000000  0.000000  0.000000  0.000000  0.000000  0.000000
                       0.000000  0.000000  0.000000  0.000000  0.000000  0.000000
                       0.000000  0.000000  0.000000  0.000000  0.000000  0.000000
                       0.000000  0.000000  0.000000  0.000000  0.000000  0.000000
                       0.000000  0.000000  0.000000  0.000000  0.000000  0.000000
                       0.000000  0.000000  0.000000  0.000000  0.000000  0.000000
                       0.000000  0.000000  0.000000  0.000000  0.000000  0.000000
                       0.000000  0.000000  0.000000  0.000000  0.000000  0.000000
                       0.000000  0.000000  0.000000  0.000000  0.000000  0.000000
                       0.000000  0.000000  0.000000  0.000000  0.000000  0.000000
                       0.000000  0.000000  0.000000  0.000000  0.000000  0.000000
                       0.000000  0.000000  0.000000  0.000000  0.000000  0.000000
                       0.000000  0.000000  0.000000  0.000000  0.000000  0.000000
                       0.000000  0.000000  0.000000  0.000000  0.000000  0.000000
                       0.000000  0.000000  0.000000  0.000000  0.000000  0.000000
                       0.000000  0.000000  0.000000  0.000000  0.000000  0.000000
                       0.000000  0.000000  0.000000  0.000000  0.000000  0.000000
                       0.000000  0.000000  0.000000  0.000000  0.000000  0.000000
                       0.000000  0.000000  0.000000  0.000000  0.000000  0.000000
                       0.000000  0.000000  0.000000  0.000000  0.000000  0.000000
                       0.000000  0.000000  0.000000  0.000000  0.000000  0.000000
                       0.000000  0.000000  0.000000  0.000000  0.000000  0.000000
                       0.000000  0.000000  0.000000  0.000000  0.000000  0.000000
                       0.000000  0.000000  0.000000  0.000000  0.000000  0.000000
                       0.000000  0.000000  0.000000  0.000000  0.000000  0.000000
                       0.000000  0.000000  0.000000  0.000000  0.000000  0.000000
                       0.000000  0.000000  0.000000  0.000000  0.000000  0.000000
                       0.000000  0.000000  0.000000  0.000000  0.000000  0.000000
                       0.000000  0.000000  0.000000  0.000000  0.000000  0.000000
                       0.000000  0.000000  0.000000  0.000000  0.000000  0.000000
                       0.000000  0.000000  0.000000  0.000000  0.000000  0.000000
                       0.000000  0.000000  0.000000  0.000000  0.000000  0.000000
                       0.000000  0.000000  0.000000  0.000000  0.000000  0.000000
                       0.000000  0.000000  0.000000  0.000000  0.000000  0.000000
                       0.000000  0.000000  0.000000  0.000000  0.000000  0.000000
                       0.000000  0.000000  0.000000  0.000000  0.000000  0.000000
                       0.000000  0.000000  0.000000  0.000000  0.000000  0.000000
                       0.000000  0.000000  0.000000  0.000000  0.000000  0.000000
                       0.000000  0.000000  0.000000  0.000000  0.000000  0.000000
                       0.000000  0.000000  0.000000  0.000000  0.000000  0.000000
        optdriver3          3
        optdriver4          4
           ppmfrq3     6.13713734E-01 Hartree
           ppmfrq4     0.00000000E+00 Hartree
          spgroup          57
           symrel      1  0  0   0  1  0   0  0  1      -1  0  0   0 -1  0   0  0 -1
                      -1  0  0   0  1  0   0  0 -1       1  0  0   0 -1  0   0  0  1
                      -1  0  0   0 -1  0   0  0  1       1  0  0   0  1  0   0  0 -1
                       1  0  0   0 -1  0   0  0 -1      -1  0  0   0  1  0   0  0  1
            tnons      0.0000000  0.0000000  0.0000000     0.0000000 -0.0000000 -0.0000000
                       0.5000000  0.5000000 -0.0000000     0.5000000  0.5000000  0.0000000
                       0.0000000  0.5000000  0.0000000     0.0000000  0.5000000 -0.0000000
                       0.5000000 -0.0000000 -0.0000000     0.5000000  0.0000000  0.0000000
           toldfe      1.00000000E-08 Hartree
           tolsym      1.00000000E-04
            typat      1  1  1  1  1  1  1  1  1  1  1  1  1  1  1  1  1  1  1  1
                       1  1  1  1  1  1  1  1  1  1  1  1  2  2  2  2  2  2  2  2
          usekden           1
          vcutgeo      1.0000000  1.0000000  0.0000000
              wtk        0.02778    0.05556    0.05556    0.02778    0.05556    0.11111
                         0.11111    0.05556    0.05556    0.11111    0.11111    0.05556
                         0.02778    0.05556    0.05556    0.02778
           xangst      3.9281266812E+00  1.8036990759E+00  1.8132736230E+01
                       2.8050427046E-01  2.5743673431E+00  2.6867263770E+01
                       1.8238112054E+00  2.5743673431E+00  2.6867263770E+01
                       2.3848197463E+00  1.8036990759E+00  1.8132736230E+01
                       2.3848197463E+00  3.9927322854E+00  2.6867263770E+01
                       1.8238112054E+00  3.8533413363E-01  1.8132736230E+01
                       2.8050427046E-01  3.8533413363E-01  1.8132736230E+01
                       3.9281266812E+00  3.9927322854E+00  2.6867263770E+01
                       3.9454632820E+00  1.8251400546E+00  2.0616632883E+01
                       2.6316766965E-01  2.5529263644E+00  2.4383367117E+01
                       1.8411478062E+00  2.5529263644E+00  2.4383367117E+01
                       2.3674831455E+00  1.8251400546E+00  2.0616632883E+01
                       2.3674831455E+00  4.0141732641E+00  2.4383367117E+01
                       1.8411478062E+00  3.6389315488E-01  2.0616632883E+01
                       2.6316766965E-01  3.6389315488E-01  2.0616632883E+01
                       3.9454632820E+00  4.0141732641E+00  2.4383367117E+01
                       3.9447173734E+00  1.8238860206E+00  2.3127749280E+01
                       2.6391357828E-01  2.5541803984E+00  2.1872250720E+01
                       1.8404018975E+00  2.5541803984E+00  2.1872250720E+01
                       2.3682290541E+00  1.8238860206E+00  2.3127749280E+01
                       2.3682290541E+00  4.0129192301E+00  2.1872250720E+01
                       1.8404018975E+00  3.6514718892E-01  2.3127749280E+01
                       2.6391357828E-01  3.6514718892E-01  2.3127749280E+01
                       3.9447173734E+00  4.0129192301E+00  2.1872250720E+01
                       3.9440471637E+00  1.8208925985E+00  2.5642682398E+01
                       2.6458378795E-01  2.5571738205E+00  1.9357317602E+01
                       1.8397316879E+00  2.5571738205E+00  1.9357317602E+01
                       2.3688992638E+00  1.8208925985E+00  2.5642682398E+01
                       2.3688992638E+00  4.0099258080E+00  1.9357317602E+01
                       1.8397316879E+00  3.6814061102E-01  2.5642682398E+01
                       2.6458378795E-01  3.6814061102E-01  2.5642682398E+01
                       3.9440471637E+00  4.0099258080E+00  1.9357317602E+01
                       4.1510888202E+00  2.0757484229E+00  2.7783050658E+01
                       5.7542131487E-02  2.3023179961E+00  1.7216949342E+01
                       2.0467733443E+00  2.3023179961E+00  1.7216949342E+01
                       2.1618576073E+00  2.0757484229E+00  2.7783050658E+01
                       2.1618576073E+00  4.2647816324E+00  1.7216949342E+01
                       2.0467733443E+00  1.1328478664E-01  2.7783050658E+01
                       5.7542131487E-02  1.1328478664E-01  2.7783050658E+01
                       4.1510888202E+00  4.2647816324E+00  1.7216949342E+01
            xcart      7.4230836427E+00  3.4084972795E+00  3.4265905515E+01
                       5.3007625028E-01  4.8648492440E+00  5.0771770465E+01
                       3.4465036962E+00  4.8648492440E+00  5.0771770465E+01
                       4.5066561968E+00  3.4084972795E+00  3.4265905515E+01
                       4.5066561968E+00  7.5451705413E+00  5.0771770465E+01
                       3.4465036962E+00  7.2817598220E-01  3.4265905515E+01
                       5.3007625028E-01  7.2817598220E-01  3.4265905515E+01
                       7.4230836427E+00  7.5451705413E+00  5.0771770465E+01
                       7.4558450703E+00  3.4490148574E+00  3.8959789930E+01
                       4.9731482267E-01  4.8243316661E+00  4.6077886050E+01
                       3.4792651238E+00  4.8243316661E+00  4.6077886050E+01
                       4.4738947692E+00  3.4490148574E+00  3.8959789930E+01
                       4.4738947692E+00  7.5856881191E+00  4.6077886050E+01
                       3.4792651238E+00  6.8765840436E-01  3.8959789930E+01
                       4.9731482267E-01  6.8765840436E-01  3.8959789930E+01
                       7.4558450703E+00  7.5856881191E+00  4.6077886050E+01
                       7.4544355073E+00  3.4466450765E+00  4.3705112209E+01
                       4.9872438570E-01  4.8267014470E+00  4.1332563771E+01
                       3.4778555608E+00  4.8267014470E+00  4.1332563771E+01
                       4.4753043322E+00  3.4466450765E+00  4.3705112209E+01
                       4.4753043322E+00  7.5833183382E+00  4.1332563771E+01
                       3.4778555608E+00  6.9002818525E-01  4.3705112209E+01
                       4.9872438570E-01  6.9002818525E-01  4.3705112209E+01
                       7.4544355073E+00  7.5833183382E+00  4.1332563771E+01
                       7.4531689946E+00  3.4409883285E+00  4.8457647045E+01
                       4.9999089842E-01  4.8323581950E+00  3.6580028935E+01
                       3.4765890481E+00  4.8323581950E+00  3.6580028935E+01
                       4.4765708449E+00  3.4409883285E+00  4.8457647045E+01
                       4.4765708449E+00  7.5776615903E+00  3.6580028935E+01
                       3.4765890481E+00  6.9568493321E-01  4.8457647045E+01
                       4.9999089842E-01  6.9568493321E-01  4.8457647045E+01
                       7.4531689946E+00  7.5776615903E+00  3.6580028935E+01
                       7.8444210234E+00  3.9225960400E+00  5.2502356880E+01
                       1.0873886961E-01  4.3507504835E+00  3.2535319100E+01
                       3.8678410769E+00  4.3507504835E+00  3.2535319100E+01
                       4.0853188161E+00  3.9225960400E+00  5.2502356880E+01
                       4.0853188161E+00  8.0592693017E+00  3.2535319100E+01
                       3.8678410769E+00  2.1407722177E-01  5.2502356880E+01
                       1.0873886961E-01  2.1407722177E-01  5.2502356880E+01
                       7.8444210234E+00  8.0592693017E+00  3.2535319100E+01
             xred      9.3335023344E-01  4.1198531572E-01  4.0294969401E-01
                       6.6649766560E-02  5.8801468428E-01  5.9705030599E-01
                       4.3335023344E-01  5.8801468428E-01  5.9705030599E-01
                       5.6664976656E-01  4.1198531572E-01  4.0294969401E-01
                       5.6664976656E-01  9.1198531572E-01  5.9705030599E-01
                       4.3335023344E-01  8.8014684280E-02  4.0294969401E-01
                       6.6649766560E-02  8.8014684280E-02  4.0294969401E-01
                       9.3335023344E-01  9.1198531572E-01  5.9705030599E-01
                       9.3746953043E-01  4.1688267832E-01  4.5814739739E-01
                       6.2530469570E-02  5.8311732168E-01  5.4185260261E-01
                       4.3746953043E-01  5.8311732168E-01  5.4185260261E-01
                       5.6253046957E-01  4.1688267832E-01  4.5814739739E-01
                       5.6253046957E-01  9.1688267832E-01  5.4185260261E-01
                       4.3746953043E-01  8.3117321680E-02  4.5814739739E-01
                       6.2530469570E-02  8.3117321680E-02  4.5814739739E-01
                       9.3746953043E-01  9.1688267832E-01  5.4185260261E-01
                       9.3729229735E-01  4.1659624273E-01  5.1394998400E-01
                       6.2707702650E-02  5.8340375727E-01  4.8605001600E-01
                       4.3729229735E-01  5.8340375727E-01  4.8605001600E-01
                       5.6270770265E-01  4.1659624273E-01  5.1394998400E-01
                       5.6270770265E-01  9.1659624273E-01  4.8605001600E-01
                       4.3729229735E-01  8.3403757269E-02  5.1394998400E-01
                       6.2707702650E-02  8.3403757269E-02  5.1394998400E-01
                       9.3729229735E-01  9.1659624273E-01  4.8605001600E-01
                       9.3713305087E-01  4.1591251119E-01  5.6983738662E-01
                       6.2866949130E-02  5.8408748881E-01  4.3016261338E-01
                       4.3713305087E-01  5.8408748881E-01  4.3016261338E-01
                       5.6286694913E-01  4.1591251119E-01  5.6983738662E-01
                       5.6286694913E-01  9.1591251119E-01  4.3016261338E-01
                       4.3713305087E-01  8.4087488810E-02  5.6983738662E-01
                       6.2866949130E-02  8.4087488810E-02  5.6983738662E-01
                       9.3713305087E-01  9.1591251119E-01  4.3016261338E-01
                       9.8632758915E-01  4.7412447053E-01  6.1740112573E-01
                       1.3672410850E-02  5.2587552947E-01  3.8259887427E-01
                       4.8632758915E-01  5.2587552947E-01  3.8259887427E-01
                       5.1367241085E-01  4.7412447053E-01  6.1740112573E-01
                       5.1367241085E-01  9.7412447053E-01  3.8259887427E-01
                       4.8632758915E-01  2.5875529468E-02  6.1740112573E-01
                       1.3672410850E-02  2.5875529468E-02  6.1740112573E-01
                       9.8632758915E-01  9.7412447053E-01  3.8259887427E-01
            znucl        6.00000    1.00000
 
================================================================================
 
 chkinp: Checking input parameters for consistency, jdtset=   3.
 
 chkinp: Checking input parameters for consistency, jdtset=   4.
 DATA TYPE INFORMATION: 
 REAL:      Data type name: REAL(DP) 
            Kind value:      8
            Precision:      15
            Smallest nonnegligible quantity relative to 1: 0.22204460E-015
            Smallest positive number:                      0.22250739E-307
            Largest representable number:                  0.17976931E+309
 INTEGER:   Data type name: INTEGER(default) 
            Kind value: 4
            Bit size:   32
            Largest representable number: 2147483647
 LOGICAL:   Data type name: LOGICAL 
            Kind value: 4
 CHARACTER: Data type name: CHARACTER             Kind value: 1

  ==== OpenMP parallelism is OFF ====
 
  ==== Using MPI-2 specifications ==== 
  MPI-IO support is ON
  xmpi_tag_ub ................       524287
  xmpi_bsize_ch ..............            1
  xmpi_bsize_int .............            4
  xmpi_bsize_sp ..............            4
  xmpi_bsize_dp ..............            8
  xmpi_bsize_spc .............            8
  xmpi_bsize_dpc .............           16
  xmpio_bsize_frm ............            4
  xmpi_address_kind ..........            8
  xmpi_offset_kind ...........            8
  MPI_WTICK ..................   3.448221949826324E-010
 
================================================================================
== DATASET  3 ==================================================================
-   mpi_nproc: 96, omp_nthreads: -1 (-1 if OMP is not activated)
 
 
--- !COMMENT
src_file: m_xgScalapack.F90
src_line: 236
message: |
    xgScalapack in auto mode
...
 
 mkfilename : getwfk/=0, take file _WFK from output of DATASET   2.
 
 
 getdim_nloc : deduce lmnmax  =   1, lnmax  =   1,
                      lmnmaxso=   4, lnmaxso=   2.
 Tran & Blaha 09
 F. Tran and P. Blaha, Phys. Rev. Lett. 102, 226401 (2009)
 Perdew & Wang
 J. P. Perdew and Y. Wang, Phys. Rev. B 45, 13244 (1992)
 
 SCREENING: Calculation of the susceptibility and dielectric matrices 
 
 Based on a program developped by R.W. Godby, V. Olevano, G. Onida, and L. Reining.
 Incorporated in ABINIT by V. Olevano, G.-M. Rignanese, and M. Torrent.
.Using single precision arithmetic ; gwpc =  4
 
 Unit cell volume ucvol=  5.5954151E+03 bohr^3
 Angles (23,13,12)=  9.00000000E+01  9.00000000E+01  9.00000000E+01 degrees
 
 getcut: wavevector=  0.0000  0.0000  0.0000  ngfft=  54  54 576
         ecut(hartree)=     50.000   => boxcut(ratio)=   2.05051
 
 ==== Dense FFT mesh used for densities and potentials ====
  FFT mesh divisions ........................    54   54  576
  Augmented FFT divisions ...................    55   55  576
  FFT algorithm .............................   512
  FFT cache size ............................    16
- pspini: atom type   1  psp file is ../6c.4.hgh
- pspatm: opening atomic psp file    ../6c.4.hgh
- Hartwigsen-Goedecker-Hutter psp for C,  from PRB58, 3641 (1998)
-  6.00000   4.00000     10605                znucl, zion, pspdat
    3    1    1    0      2001   0.00000      pspcod,pspxc,lmax,lloc,mmax,r2well
 
--- !WARNING
src_file: m_pspini.F90
src_line: 1039
message: |
    Pseudopotential file pspxc: 1, not equal to input ixc: -208012.
    These parameters must agree to get the same xc in ABINIT code as in psp construction.
    Action: check psp design or input file.
    Assume experienced user. Execution will continue.
...
 
 rloc=   0.3488300
 cc1 =  -8.5137710; cc2 =   1.2284320; cc3 =   0.0000000; cc4 =   0.0000000
 rrs =   0.3045530; h11s=   9.5228420; h22s=   0.0000000; h33s=   0.0000000
 rrp =   0.2326770; h11p=   0.0000000; h22p=   0.0000000; h33p=   0.0000000
                    k11p=   0.0041040; k22p=   0.0000000; k33p=   0.0000000
-  Local part computed in reciprocal space.
 
 pspatm : COMMENT -
  the projectors are not normalized,
  so that the KB energies are not consistent with 
  definition in PRB44, 8503 (1991). 
  However, this does not influence the results obtained hereafter.
  pspatm : epsatm=   -0.16969744
         --- l  ekb(1:nproj) -->
             0    0.953587
 pspatm: atomic psp has been read  and splines computed
 
- pspini: atom type   2  psp file is ../1h.1.hgh
- pspatm: opening atomic psp file    ../1h.1.hgh
- Hartwigsen-Goedecker-Hutter psp for H,  from PRB58, 3641 (1998)
-  1.00000   1.00000     10605                znucl, zion, pspdat
    3    1    0    0      2001   0.00000      pspcod,pspxc,lmax,lloc,mmax,r2well
 
--- !WARNING
src_file: m_pspini.F90
src_line: 1039
message: |
    Pseudopotential file pspxc: 1, not equal to input ixc: -208012.
    These parameters must agree to get the same xc in ABINIT code as in psp construction.
    Action: check psp design or input file.
    Assume experienced user. Execution will continue.
...
 
 rloc=   0.2000000
 cc1 =  -4.1802370; cc2 =   0.7250750; cc3 =   0.0000000; cc4 =   0.0000000
 rrs =   0.0000000; h11s=   0.0000000; h22s=   0.0000000; h33s=   0.0000000
-  Local part computed in reciprocal space.
 
 pspatm : COMMENT -
  the projectors are not normalized,
  so that the KB energies are not consistent with 
  definition in PRB44, 8503 (1991). 
  However, this does not influence the results obtained hereafter.
  pspatm : epsatm=   -0.00129784
         --- l  ekb(1:nproj) -->
 pspatm: atomic psp has been read  and splines computed
 
  -7.39935321E+02                                ecore*ucvol(ha*bohr**3)
 ==== Info on pseudopotentials ====
  Norm-conserving pseudopotentials
  Number of pseudopotentials ..    2
  Number of types of atoms   ..    2
  Calculation with spin-orbit coupling 
  Max number of channels (spin-orbit included)   3
  - Atom type    1 has spin-orbit characteristics (pspso=  0)
  - Atom type    2 has spin-orbit characteristics (pspso=  0)
  Nonlocal part applied using Legendre polynomials
  Max number of non-local projectors over l and type   1
  Highest angular momentum +1 .......   2
  Max number of (l,n)   components ..   2
  Max number of (l,m,n) components ..   2
 
 Info on the Q-grid used for form factors in spline form: 
   Number of q-points for radial functions ffspl ..  27069
   Number of q-points for vlspl ...................  27069
   vloc is computed in Reciprocal Space
   model core charge treated in real-space
 
  XC functional for type 1 is 1
  Pseudo valence available: no
  XC functional for type 2 is 1
  Pseudo valence available: no
 
 
 GW calculation type              =    0
 zcut to avoid poles in chi0 [eV] =   0.100000
 
 Reading eigenvalues from: 4H-2110_gw_o_DS2_WFK , with iomode: IO_MODE_MPI
 wfk_read_eigenvalues completed. cpu:  0.01 [s] , wall:  0.76 [s] <<< TIME
 
 Sorting g-vecs for an output of states on an unique "big" PW basis.
 Since the number of g's to be written on file
 was 0 or too large, it has been set to the max. value.,
 computed from the union of the sets of G vectors for the different k-points.
 Number of G-vectors is: *****
 
  ==== Info on the Cryst% object ====
 Real(R)+Recip(G) space primitive vectors, cartesian coordinates (Bohr,Bohr^-1):
 R(1)=  7.9531599  0.0000000  0.0000000  G(1)=  0.1257362  0.0000000  0.0000000
 R(2)=  0.0000000  8.2733465  0.0000000  G(2)=  0.0000000  0.1208701  0.0000000
 R(3)=  0.0000000  0.0000000 85.0376760  G(3)=  0.0000000  0.0000000  0.0117595
 Unit cell volume ucvol=  5.5954151E+03 bohr^3
 Angles (23,13,12)=  9.00000000E+01  9.00000000E+01  9.00000000E+01 degrees
 Time-reversal symmetry is present
 Reduced atomic positions [iatom, xred, symbol]:
    1)    0.9333502  0.4119853  0.4029497   C
    2)    0.0666498  0.5880147  0.5970503   C
    3)    0.4333502  0.5880147  0.5970503   C
    4)    0.5666498  0.4119853  0.4029497   C
    5)    0.5666498  0.9119853  0.5970503   C
    6)    0.4333502  0.0880147  0.4029497   C
    7)    0.0666498  0.0880147  0.4029497   C
    8)    0.9333502  0.9119853  0.5970503   C
    9)    0.9374695  0.4168827  0.4581474   C
   10)    0.0625305  0.5831173  0.5418526   C
   11)    0.4374695  0.5831173  0.5418526   C
   12)    0.5625305  0.4168827  0.4581474   C
   13)    0.5625305  0.9168827  0.5418526   C
   14)    0.4374695  0.0831173  0.4581474   C
   15)    0.0625305  0.0831173  0.4581474   C
   16)    0.9374695  0.9168827  0.5418526   C
   17)    0.9372923  0.4165962  0.5139500   C
   18)    0.0627077  0.5834038  0.4860500   C
   19)    0.4372923  0.5834038  0.4860500   C
   20)    0.5627077  0.4165962  0.5139500   C
   21)    0.5627077  0.9165962  0.4860500   C
   22)    0.4372923  0.0834038  0.5139500   C
   23)    0.0627077  0.0834038  0.5139500   C
   24)    0.9372923  0.9165962  0.4860500   C
   25)    0.9371331  0.4159125  0.5698374   C
   26)    0.0628669  0.5840875  0.4301626   C
   27)    0.4371331  0.5840875  0.4301626   C
   28)    0.5628669  0.4159125  0.5698374   C
   29)    0.5628669  0.9159125  0.4301626   C
   30)    0.4371331  0.0840875  0.5698374   C
   31)    0.0628669  0.0840875  0.5698374   C
   32)    0.9371331  0.9159125  0.4301626   C
   33)    0.9863276  0.4741245  0.6174011   H
   34)    0.0136724  0.5258755  0.3825989   H
   35)    0.4863276  0.5258755  0.3825989   H
   36)    0.5136724  0.4741245  0.6174011   H
   37)    0.5136724  0.9741245  0.3825989   H
   38)    0.4863276  0.0258755  0.6174011   H
   39)    0.0136724  0.0258755  0.6174011   H
   40)    0.9863276  0.9741245  0.3825989   H
 ==== K-mesh for the wavefunctions ====
 Number of points in the irreducible wedge :    16
 Reduced coordinates and weights : 
 
     1)     0.00000000E+00  0.00000000E+00  0.00000000E+00       0.02778
     2)     1.66666667E-01  0.00000000E+00  0.00000000E+00       0.05556
     3)     3.33333333E-01  0.00000000E+00  0.00000000E+00       0.05556
     4)     5.00000000E-01  0.00000000E+00  0.00000000E+00       0.02778
     5)     0.00000000E+00  1.66666667E-01  0.00000000E+00       0.05556
     6)     1.66666667E-01  1.66666667E-01  0.00000000E+00       0.11111
     7)     3.33333333E-01  1.66666667E-01  0.00000000E+00       0.11111
     8)     5.00000000E-01  1.66666667E-01  0.00000000E+00       0.05556
     9)     0.00000000E+00  3.33333333E-01  0.00000000E+00       0.05556
    10)     1.66666667E-01  3.33333333E-01  0.00000000E+00       0.11111
    11)     3.33333333E-01  3.33333333E-01  0.00000000E+00       0.11111
    12)     5.00000000E-01  3.33333333E-01  0.00000000E+00       0.05556
    13)     0.00000000E+00  5.00000000E-01  0.00000000E+00       0.02778
    14)     1.66666667E-01  5.00000000E-01  0.00000000E+00       0.05556
    15)     3.33333333E-01  5.00000000E-01  0.00000000E+00       0.05556
    16)     5.00000000E-01  5.00000000E-01  0.00000000E+00       0.02778
 
 Together with  8 symmetry operations and time-reversal symmetry 
 yields    36 points in the full Brillouin Zone.
 
 
 ==== Q-mesh for the screening function ====
 Number of points in the irreducible wedge :    16
 Reduced coordinates and weights : 
 
     1)     0.00000000E+00  0.00000000E+00  0.00000000E+00       0.02778
     2)     1.66666667E-01  0.00000000E+00  0.00000000E+00       0.05556
     3)     3.33333333E-01  0.00000000E+00  0.00000000E+00       0.05556
     4)     5.00000000E-01  0.00000000E+00  0.00000000E+00       0.02778
     5)     0.00000000E+00  1.66666667E-01  0.00000000E+00       0.05556
     6)     1.66666667E-01  1.66666667E-01  0.00000000E+00       0.11111
     7)     3.33333333E-01  1.66666667E-01  0.00000000E+00       0.11111
     8)     5.00000000E-01  1.66666667E-01  0.00000000E+00       0.05556
     9)     0.00000000E+00  3.33333333E-01  0.00000000E+00       0.05556
    10)     1.66666667E-01  3.33333333E-01  0.00000000E+00       0.11111
    11)     3.33333333E-01  3.33333333E-01  0.00000000E+00       0.11111
    12)     5.00000000E-01  3.33333333E-01  0.00000000E+00       0.05556
    13)     0.00000000E+00  5.00000000E-01  0.00000000E+00       0.02778
    14)     1.66666667E-01  5.00000000E-01  0.00000000E+00       0.05556
    15)     3.33333333E-01  5.00000000E-01  0.00000000E+00       0.05556
    16)     5.00000000E-01  5.00000000E-01  0.00000000E+00       0.02778
 
 Together with  8 symmetry operations and time-reversal symmetry 
 yields    36 points in the full Brillouin Zone.
 
 
 Optimal value for ng0sh: [1, 1, 0]
  Due to umklapp processes : ecutepspg0=    4.99583102013163     
 
 setmesh: npwwfn        =    94557; Max (m1,m2,m3)   =     12    13   135
          npweps/npwsigx=     2933; Max (mm1,mm2,mm3)=      5     5    42
          mG0 added     =   1  1  0
 calculated ecutwfn          =  50.000 [Ha] 
 calculated ecutsigx/ecuteps =   4.996 [Ha]
 using method =  2 with ecuteff =  86.605 [Ha]
 Finding a FFT mesh compatible with all the symmetries
 setmesh: divisor mesh 2 2 1
 setmesh: FFT mesh size selected  =    36x   36x  360
          total number of points  =       466560
 
  simple integral   21.4805800249103     
  q0 sphere :   1.231416002431205E-003  q0_vol cyl   1.206944299691316E-003
  spherical approximation    8137.91109376726     
  Cylindrical cutoff value    8262.41738787402     
 
 === Surface cutoff === 
 
  Cutoff radius ....................    42.5188 [Bohr] 
  Central plane passing through ....       0.00      0.00      0.00 (r.l.u) 
 
 q-points for optical limit:   1
     1)      0.000010    0.000020    0.000030
 
 ==== FFT mesh used for oscillator strengths ====
  FFT mesh divisions ........................    36   36  360
  Augmented FFT divisions ...................    37   37  360
  FFT algorithm .............................   512
  FFT cache size ............................    16
 Top of valence:  -0.6688 (eV)
 Bottom of conduction:   1.4012 (eV)
 Fermi level: 0.3662  (eV) 
 
 Memory needed for Fourier components u(G):    911.9 [Mb] <<< MEM
 Storing wavefunctions in single precision array as `enable_gw_dpc="no"`
 Memory needed for real-space u(r):   4499.3 [Mb] <<< MEM
 Memory needed for bks_tab:      1.6 [Mb] <<< MEM
 wfd_init completed. cpu:  0.99 [s] , wall:  1.00 [s] <<< TIME
 ==== Info on the Wfd% object ====
  Number of irreducible k-points ........ 16
  Number of spinorial components ........ 1
  Number of spin-density components ..... 1
  Number of spin polarizations .......... 1
  Plane wave cutoff energy ..............  50.0
  Max number of G-vectors ............... 94557
  Total number of FFT points ............ 466560
  Number of FFT points treated by me .... 466560
 
 
 ==== FFT mesh for wavefunctions ====
  FFT mesh divisions ........................    36   36  360
  Augmented FFT divisions ...................    37   37  360
  FFT algorithm .............................   512
  FFT cache size ............................    16

 Total number of (b,k,s) states stored by this rank: 1264
 Memory allocated for Fourier components u(G):    911.9 [Mb] <<< MEM
 Memory allocated for real-space u(r):      0.0 [Mb] <<< MEM
 Memory needed for wfd%s datastructure:      0.0 [Mb] <<< MEM
 Memory needed for wfd%s(0)%k datastructure:      0.0 [Mb] <<< MEM
 Memory allocated for Kdata array:      0.0 [Mb] <<< MEM



 wfd_read_wfk: Reading file: 4H-2110_gw_o_DS2_WFK  with iomode: IO_MODE_MPI , master_only: yes
 If MPI-IO is too slow, use the command line option `abinit --enforce-fortran-io ...` 
  to make the master proc read data with Fortran-IO and then broadcast (requires more memory)
 About to read: 1264  (b, k, s) states in total.
 For spin: 1 , will read: 16  k-points.
 Reading k-point [1/16] spin [1/1] completed. cpu:  4.03 [s] , wall:  4.56 [s] <<< TIME
 Reading k-point [2/16] spin [1/1] completed. cpu:  4.09 [s] , wall:  4.26 [s] <<< TIME
 Reading k-point [3/16] spin [1/1] completed. cpu:  3.78 [s] , wall:  4.07 [s] <<< TIME
 Reading k-point [4/16] spin [1/1] completed. cpu:  3.66 [s] , wall:  4.01 [s] <<< TIME
 Reading k-point [5/16] spin [1/1] completed. cpu:  3.93 [s] , wall:  4.17 [s] <<< TIME
 Reading k-point [6/16] spin [1/1] completed. cpu:  3.56 [s] , wall:  4.18 [s] <<< TIME
 Reading k-point [7/16] spin [1/1] completed. cpu:  3.81 [s] , wall:  4.37 [s] <<< TIME
 Reading k-point [8/16] spin [1/1] completed. cpu:  3.98 [s] , wall:  4.32 [s] <<< TIME
 Reading k-point [9/16] spin [1/1] completed. cpu:  4.18 [s] , wall:  4.42 [s] <<< TIME
 Reading k-point [10/16] spin [1/1] completed. cpu:  4.37 [s] , wall:  4.55 [s] <<< TIME
 WFK IO completed. cpu: 01:06 [minutes] , wall: 01:11 [minutes] <<< TIME
 
 
  CHECK           -1         576
 planewave contribution to nelect:  136.0000
 planewave contribution to nelect:  138.3666
 Number of electrons calculated from density =  136.0000; Expected =  136.0000
 average of density, n =  0.024306
 r_s =    2.1416
 omega_plasma =   15.0386 [eV]
 
 Total charge density [el/Bohr^3]
      Maximum=    3.5751E-01  at reduced coord.    0.5000    0.4815    0.6163
      Minimum=    0.0000E+00  at reduced coord.    0.0000    0.0000    0.0000
   Integrated=    1.3600E+02
 Total kinetic energy density [Ha/Bohr^3]
      Maximum=    3.0547E+00  at reduced coord.    0.9259    0.9074    0.5972
      Minimum=    7.3373E-08  at reduced coord.    0.6111    0.1296    0.0052
   Integrated=    1.3837E+02
 
 1/G**2 cut-off applied in the following step : cutoff-mode = CRYSTAL
 
 1/G**2 cut-off applied in the following step : cutoff-mode = CRYSTAL
 
 1/G**2 cut-off applied in the following step : cutoff-mode = CRYSTAL
 
In the mGGA functional TB09, c =  0.785493
 
 calculating chi0 at frequencies [eV] :
  1    0.000000E+00    0.000000E+00
  2    0.000000E+00    1.670000E+01
 Memory required for chi0 matrix=        131.3 [Mb].
 
 
--------------------------------------------------------------------------------
  q-point number  1        q = ( 0.000000, 0.000000, 0.000000) [r.l.u.]
--------------------------------------------------------------------------------
 Q-points for long wave-length limit. #   1
     1)      0.000010    0.000020    0.000030
 
 Using spectral method for the imaginary part =  0
 Using symmetries to sum only over the IBZ_q  =  1
 Using faster algorithm based on time reversal symmetry.
 Will sum 11968 (b,b',k,s) states in chi0q0.
 Calculating chi0(q=(0,0,0),omega,G,G")
 
 ==== Little Group Info ==== 
  External point   0.00000000E+00  0.00000000E+00  0.00000000E+00
[...]
                       0.000000  0.000000  0.000000  0.000000  0.000000  0.000000
                       0.000000  0.000000  0.000000  0.000000  0.000000  0.000000
                       0.000000  0.000000  0.000000  0.000000  0.000000  0.000000
                       0.000000  0.000000  0.000000  0.000000  0.000000  0.000000
                       0.000000  0.000000  0.000000  0.000000  0.000000  0.000000
                       0.000000  0.000000  0.000000  0.000000  0.000000  0.000000
                       0.000000  0.000000  0.000000  0.000000  0.000000  0.000000
                       0.000000  0.000000  0.000000  0.000000  0.000000  0.000000
                       0.000000  0.000000  0.000000  0.000000  0.000000  0.000000
                       0.000000  0.000000  0.000000  0.000000  0.000000  0.000000
                       0.000000  0.000000  0.000000  0.000000  0.000000  0.000000
                       0.000000  0.000000  0.000000  0.000000  0.000000  0.000000
                       0.000000  0.000000  0.000000  0.000000  0.000000  0.000000
                       0.000000  0.000000  0.000000  0.000000  0.000000  0.000000
                       0.000000  0.000000  0.000000  0.000000  0.000000  0.000000
                       0.000000  0.000000  0.000000  0.000000  0.000000  0.000000
                       0.000000  0.000000  0.000000  0.000000  0.000000  0.000000
                       0.000000  0.000000  0.000000  0.000000  0.000000  0.000000
                       0.000000  0.000000  0.000000  0.000000  0.000000  0.000000
                       0.000000  0.000000  0.000000  0.000000  0.000000  0.000000
                       0.000000  0.000000  0.000000  0.000000  0.000000  0.000000
                       0.000000  0.000000  0.000000  0.000000  0.000000  0.000000
                       0.000000  0.000000  0.000000  0.000000  0.000000  0.000000
                       0.000000  0.000000  0.000000  0.000000  0.000000  0.000000
                       0.000000  0.000000  0.000000  0.000000  0.000000  0.000000
                       0.000000  0.000000  0.000000  0.000000  0.000000  0.000000
                       0.000000  0.000000  0.000000  0.000000  0.000000  0.000000
                       0.000000  0.000000  0.000000  0.000000  0.000000  0.000000
                       0.000000  0.000000  0.000000  0.000000  0.000000  0.000000
                       0.000000  0.000000  0.000000  0.000000  0.000000  0.000000
                       0.000000  0.000000  0.000000  0.000000  0.000000  0.000000
                       0.000000  0.000000  0.000000  0.000000  0.000000  0.000000
                       0.000000  0.000000  0.000000  0.000000  0.000000  0.000000
                       0.000000  0.000000  0.000000  0.000000  0.000000  0.000000
                       0.000000  0.000000  0.000000  0.000000  0.000000  0.000000
        optdriver3          3
        optdriver4          4
           ppmfrq3     6.13713734E-01 Hartree
           ppmfrq4     0.00000000E+00 Hartree
          spgroup          57
           strten3     0.0000000000E+00  0.0000000000E+00  0.0000000000E+00
                       0.0000000000E+00  0.0000000000E+00  0.0000000000E+00
           strten4     0.0000000000E+00  0.0000000000E+00  0.0000000000E+00
                       0.0000000000E+00  0.0000000000E+00  0.0000000000E+00
           symrel      1  0  0   0  1  0   0  0  1      -1  0  0   0 -1  0   0  0 -1
                      -1  0  0   0  1  0   0  0 -1       1  0  0   0 -1  0   0  0  1
                      -1  0  0   0 -1  0   0  0  1       1  0  0   0  1  0   0  0 -1
                       1  0  0   0 -1  0   0  0 -1      -1  0  0   0  1  0   0  0  1
            tnons      0.0000000  0.0000000  0.0000000     0.0000000 -0.0000000 -0.0000000
                       0.5000000  0.5000000 -0.0000000     0.5000000  0.5000000  0.0000000
                       0.0000000  0.5000000  0.0000000     0.0000000  0.5000000 -0.0000000
                       0.5000000 -0.0000000 -0.0000000     0.5000000  0.0000000  0.0000000
           toldfe      1.00000000E-08 Hartree
           tolsym      1.00000000E-04
            typat      1  1  1  1  1  1  1  1  1  1  1  1  1  1  1  1  1  1  1  1
                       1  1  1  1  1  1  1  1  1  1  1  1  2  2  2  2  2  2  2  2
          usekden           1
          vcutgeo      1.0000000  1.0000000  0.0000000
              wtk        0.02778    0.05556    0.05556    0.02778    0.05556    0.11111
                         0.11111    0.05556    0.05556    0.11111    0.11111    0.05556
                         0.02778    0.05556    0.05556    0.02778
           xangst      3.9281266812E+00  1.8036990759E+00  1.8132736230E+01
                       2.8050427046E-01  2.5743673431E+00  2.6867263770E+01
                       1.8238112054E+00  2.5743673431E+00  2.6867263770E+01
                       2.3848197463E+00  1.8036990759E+00  1.8132736230E+01
                       2.3848197463E+00  3.9927322854E+00  2.6867263770E+01
                       1.8238112054E+00  3.8533413363E-01  1.8132736230E+01
                       2.8050427046E-01  3.8533413363E-01  1.8132736230E+01
                       3.9281266812E+00  3.9927322854E+00  2.6867263770E+01
                       3.9454632820E+00  1.8251400546E+00  2.0616632883E+01
                       2.6316766965E-01  2.5529263644E+00  2.4383367117E+01
                       1.8411478062E+00  2.5529263644E+00  2.4383367117E+01
                       2.3674831455E+00  1.8251400546E+00  2.0616632883E+01
                       2.3674831455E+00  4.0141732641E+00  2.4383367117E+01
                       1.8411478062E+00  3.6389315488E-01  2.0616632883E+01
                       2.6316766965E-01  3.6389315488E-01  2.0616632883E+01
                       3.9454632820E+00  4.0141732641E+00  2.4383367117E+01
                       3.9447173734E+00  1.8238860206E+00  2.3127749280E+01
                       2.6391357828E-01  2.5541803984E+00  2.1872250720E+01
                       1.8404018975E+00  2.5541803984E+00  2.1872250720E+01
                       2.3682290541E+00  1.8238860206E+00  2.3127749280E+01
                       2.3682290541E+00  4.0129192301E+00  2.1872250720E+01
                       1.8404018975E+00  3.6514718892E-01  2.3127749280E+01
                       2.6391357828E-01  3.6514718892E-01  2.3127749280E+01
                       3.9447173734E+00  4.0129192301E+00  2.1872250720E+01
                       3.9440471637E+00  1.8208925985E+00  2.5642682398E+01
                       2.6458378795E-01  2.5571738205E+00  1.9357317602E+01
                       1.8397316879E+00  2.5571738205E+00  1.9357317602E+01
                       2.3688992638E+00  1.8208925985E+00  2.5642682398E+01
                       2.3688992638E+00  4.0099258080E+00  1.9357317602E+01
                       1.8397316879E+00  3.6814061102E-01  2.5642682398E+01
                       2.6458378795E-01  3.6814061102E-01  2.5642682398E+01
                       3.9440471637E+00  4.0099258080E+00  1.9357317602E+01
                       4.1510888202E+00  2.0757484229E+00  2.7783050658E+01
                       5.7542131487E-02  2.3023179961E+00  1.7216949342E+01
                       2.0467733443E+00  2.3023179961E+00  1.7216949342E+01
                       2.1618576073E+00  2.0757484229E+00  2.7783050658E+01
                       2.1618576073E+00  4.2647816324E+00  1.7216949342E+01
                       2.0467733443E+00  1.1328478664E-01  2.7783050658E+01
                       5.7542131487E-02  1.1328478664E-01  2.7783050658E+01
                       4.1510888202E+00  4.2647816324E+00  1.7216949342E+01
            xcart      7.4230836427E+00  3.4084972795E+00  3.4265905515E+01
                       5.3007625028E-01  4.8648492440E+00  5.0771770465E+01
                       3.4465036962E+00  4.8648492440E+00  5.0771770465E+01
                       4.5066561968E+00  3.4084972795E+00  3.4265905515E+01
                       4.5066561968E+00  7.5451705413E+00  5.0771770465E+01
                       3.4465036962E+00  7.2817598220E-01  3.4265905515E+01
                       5.3007625028E-01  7.2817598220E-01  3.4265905515E+01
                       7.4230836427E+00  7.5451705413E+00  5.0771770465E+01
                       7.4558450703E+00  3.4490148574E+00  3.8959789930E+01
                       4.9731482267E-01  4.8243316661E+00  4.6077886050E+01
                       3.4792651238E+00  4.8243316661E+00  4.6077886050E+01
                       4.4738947692E+00  3.4490148574E+00  3.8959789930E+01
                       4.4738947692E+00  7.5856881191E+00  4.6077886050E+01
                       3.4792651238E+00  6.8765840436E-01  3.8959789930E+01
                       4.9731482267E-01  6.8765840436E-01  3.8959789930E+01
                       7.4558450703E+00  7.5856881191E+00  4.6077886050E+01
                       7.4544355073E+00  3.4466450765E+00  4.3705112209E+01
                       4.9872438570E-01  4.8267014470E+00  4.1332563771E+01
                       3.4778555608E+00  4.8267014470E+00  4.1332563771E+01
                       4.4753043322E+00  3.4466450765E+00  4.3705112209E+01
                       4.4753043322E+00  7.5833183382E+00  4.1332563771E+01
                       3.4778555608E+00  6.9002818525E-01  4.3705112209E+01
                       4.9872438570E-01  6.9002818525E-01  4.3705112209E+01
                       7.4544355073E+00  7.5833183382E+00  4.1332563771E+01
                       7.4531689946E+00  3.4409883285E+00  4.8457647045E+01
                       4.9999089842E-01  4.8323581950E+00  3.6580028935E+01
                       3.4765890481E+00  4.8323581950E+00  3.6580028935E+01
                       4.4765708449E+00  3.4409883285E+00  4.8457647045E+01
                       4.4765708449E+00  7.5776615903E+00  3.6580028935E+01
                       3.4765890481E+00  6.9568493321E-01  4.8457647045E+01
                       4.9999089842E-01  6.9568493321E-01  4.8457647045E+01
                       7.4531689946E+00  7.5776615903E+00  3.6580028935E+01
                       7.8444210234E+00  3.9225960400E+00  5.2502356880E+01
                       1.0873886961E-01  4.3507504835E+00  3.2535319100E+01
                       3.8678410769E+00  4.3507504835E+00  3.2535319100E+01
                       4.0853188161E+00  3.9225960400E+00  5.2502356880E+01
                       4.0853188161E+00  8.0592693017E+00  3.2535319100E+01
                       3.8678410769E+00  2.1407722177E-01  5.2502356880E+01
                       1.0873886961E-01  2.1407722177E-01  5.2502356880E+01
                       7.8444210234E+00  8.0592693017E+00  3.2535319100E+01
             xred      9.3335023344E-01  4.1198531572E-01  4.0294969401E-01
                       6.6649766560E-02  5.8801468428E-01  5.9705030599E-01
                       4.3335023344E-01  5.8801468428E-01  5.9705030599E-01
                       5.6664976656E-01  4.1198531572E-01  4.0294969401E-01
                       5.6664976656E-01  9.1198531572E-01  5.9705030599E-01
                       4.3335023344E-01  8.8014684280E-02  4.0294969401E-01
                       6.6649766560E-02  8.8014684280E-02  4.0294969401E-01
                       9.3335023344E-01  9.1198531572E-01  5.9705030599E-01
                       9.3746953043E-01  4.1688267832E-01  4.5814739739E-01
                       6.2530469570E-02  5.8311732168E-01  5.4185260261E-01
                       4.3746953043E-01  5.8311732168E-01  5.4185260261E-01
                       5.6253046957E-01  4.1688267832E-01  4.5814739739E-01
                       5.6253046957E-01  9.1688267832E-01  5.4185260261E-01
                       4.3746953043E-01  8.3117321680E-02  4.5814739739E-01
                       6.2530469570E-02  8.3117321680E-02  4.5814739739E-01
                       9.3746953043E-01  9.1688267832E-01  5.4185260261E-01
                       9.3729229735E-01  4.1659624273E-01  5.1394998400E-01
                       6.2707702650E-02  5.8340375727E-01  4.8605001600E-01
                       4.3729229735E-01  5.8340375727E-01  4.8605001600E-01
                       5.6270770265E-01  4.1659624273E-01  5.1394998400E-01
                       5.6270770265E-01  9.1659624273E-01  4.8605001600E-01
                       4.3729229735E-01  8.3403757269E-02  5.1394998400E-01
                       6.2707702650E-02  8.3403757269E-02  5.1394998400E-01
                       9.3729229735E-01  9.1659624273E-01  4.8605001600E-01
                       9.3713305087E-01  4.1591251119E-01  5.6983738662E-01
                       6.2866949130E-02  5.8408748881E-01  4.3016261338E-01
                       4.3713305087E-01  5.8408748881E-01  4.3016261338E-01
                       5.6286694913E-01  4.1591251119E-01  5.6983738662E-01
                       5.6286694913E-01  9.1591251119E-01  4.3016261338E-01
                       4.3713305087E-01  8.4087488810E-02  5.6983738662E-01
                       6.2866949130E-02  8.4087488810E-02  5.6983738662E-01
                       9.3713305087E-01  9.1591251119E-01  4.3016261338E-01
                       9.8632758915E-01  4.7412447053E-01  6.1740112573E-01
                       1.3672410850E-02  5.2587552947E-01  3.8259887427E-01
                       4.8632758915E-01  5.2587552947E-01  3.8259887427E-01
                       5.1367241085E-01  4.7412447053E-01  6.1740112573E-01
                       5.1367241085E-01  9.7412447053E-01  3.8259887427E-01
                       4.8632758915E-01  2.5875529468E-02  6.1740112573E-01
                       1.3672410850E-02  2.5875529468E-02  6.1740112573E-01
                       9.8632758915E-01  9.7412447053E-01  3.8259887427E-01
            znucl        6.00000    1.00000
 
================================================================================
  

================================================================================

 Suggested references for the acknowledgment of ABINIT usage.

 The users of ABINIT have little formal obligations with respect to the ABINIT group
 (those specified in the GNU General Public License, http://www.gnu.org/copyleft/gpl.txt).
 However, it is common practice in the scientific literature,
 to acknowledge the efforts of people that have made the research possible.
 In this spirit, please find below suggested citations of work written by ABINIT developers,
 corresponding to implementations inside of ABINIT that you have used in the present run.
 Note also that it will be of great value to readers of publications presenting these results,
 to read papers enabling them to understand the theoretical formalism and details
 of the ABINIT implementation.
 For information on why they are suggested, see also https://docs.abinit.org/theory/acknowledgments.
-
- [1] Libxc: A library of exchange and correlation functionals for density functional theory.
- M.A.L. Marques, M.J.T. Oliveira, T. Burnus, Computer Physics Communications 183, 2227 (2012).
- Comment: to be cited when LibXC is used (negative value of ixc)
- Strong suggestion to cite this paper.
- DOI and bibtex: see https://docs.abinit.org/theory/bibliography/#marques2012
-
- [2] The Abinit project: Impact, environment and recent developments.
- Computer Phys. Comm. 248, 107042 (2020).
- X.Gonze, B. Amadon, G. Antonius, F.Arnardi, L.Baguet, J.-M.Beuken,
- J.Bieder, F.Bottin, J.Bouchet, E.Bousquet, N.Brouwer, F.Bruneval,
- G.Brunin, T.Cavignac, J.-B. Charraud, Wei Chen, M.Cote, S.Cottenier,
- J.Denier, G.Geneste, Ph.Ghosez, M.Giantomassi, Y.Gillet, O.Gingras,
- D.R.Hamann, G.Hautier, Xu He, N.Helbig, N.Holzwarth, Y.Jia, F.Jollet,
- W.Lafargue-Dit-Hauret, K.Lejaeghere, M.A.L.Marques, A.Martin, C.Martins,
- H.P.C. Miranda, F.Naccarato, K. Persson, G.Petretto, V.Planes, Y.Pouillon,
- S.Prokhorenko, F.Ricci, G.-M.Rignanese, A.H.Romero, M.M.Schmitt, M.Torrent,
- M.J.van Setten, B.Van Troeye, M.J.Verstraete, G.Zerah and J.W.Zwanzig
- Comment: the fifth generic paper describing the ABINIT project.
- Note that a version of this paper, that is not formatted for Computer Phys. Comm. 
- is available at https://www.abinit.org/sites/default/files/ABINIT20.pdf .
- The licence allows the authors to put it on the Web.
- DOI and bibtex: see https://docs.abinit.org/theory/bibliography/#gonze2020
-
- [3] ABINIT: Overview, and focus on selected capabilities
- J. Chem. Phys. 152, 124102 (2020).
- A. Romero, D.C. Allan, B. Amadon, G. Antonius, T. Applencourt, L.Baguet,
- J.Bieder, F.Bottin, J.Bouchet, E.Bousquet, F.Bruneval,
- G.Brunin, D.Caliste, M.Cote,
- J.Denier, C. Dreyer, Ph.Ghosez, M.Giantomassi, Y.Gillet, O.Gingras,
- D.R.Hamann, G.Hautier, F.Jollet, G. Jomard,
- A.Martin, 
- H.P.C. Miranda, F.Naccarato, G.Petretto, N.A. Pike, V.Planes,
- S.Prokhorenko, T. Rangel, F.Ricci, G.-M.Rignanese, M.Royo, M.Stengel, M.Torrent,
- M.J.van Setten, B.Van Troeye, M.J.Verstraete, J.Wiktor, J.W.Zwanziger, and X.Gonze.
- Comment: a global overview of ABINIT, with focus on selected capabilities .
- Note that a version of this paper, that is not formatted for J. Chem. Phys 
- is available at https://www.abinit.org/sites/default/files/ABINIT20_JPC.pdf .
- The licence allows the authors to put it on the Web.
- DOI and bibtex: see https://docs.abinit.org/theory/bibliography/#romero2020
-
- [4] Recent developments in the ABINIT software package.
- Computer Phys. Comm. 205, 106 (2016).
- X.Gonze, F.Jollet, F.Abreu Araujo, D.Adams, B.Amadon, T.Applencourt,
- C.Audouze, J.-M.Beuken, J.Bieder, A.Bokhanchuk, E.Bousquet, F.Bruneval
- D.Caliste, M.Cote, F.Dahm, F.Da Pieve, M.Delaveau, M.Di Gennaro,
- B.Dorado, C.Espejo, G.Geneste, L.Genovese, A.Gerossier, M.Giantomassi,
- Y.Gillet, D.R.Hamann, L.He, G.Jomard, J.Laflamme Janssen, S.Le Roux,
- A.Levitt, A.Lherbier, F.Liu, I.Lukacevic, A.Martin, C.Martins,
- M.J.T.Oliveira, S.Ponce, Y.Pouillon, T.Rangel, G.-M.Rignanese,
- A.H.Romero, B.Rousseau, O.Rubel, A.A.Shukri, M.Stankovski, M.Torrent,
- M.J.Van Setten, B.Van Troeye, M.J.Verstraete, D.Waroquier, J.Wiktor,
- B.Xu, A.Zhou, J.W.Zwanziger.
- Comment: the fourth generic paper describing the ABINIT project.
- Note that a version of this paper, that is not formatted for Computer Phys. Comm. 
- is available at https://www.abinit.org/sites/default/files/ABINIT16.pdf .
- The licence allows the authors to put it on the Web.
- DOI and bibtex: see https://docs.abinit.org/theory/bibliography/#gonze2016
-
- And optionally:
-
- [5] ABINIT: First-principles approach of materials and nanosystem properties.
- Computer Phys. Comm. 180, 2582-2615 (2009).
- X. Gonze, B. Amadon, P.-M. Anglade, J.-M. Beuken, F. Bottin, P. Boulanger, F. Bruneval,
- D. Caliste, R. Caracas, M. Cote, T. Deutsch, L. Genovese, Ph. Ghosez, M. Giantomassi
- S. Goedecker, D.R. Hamann, P. Hermet, F. Jollet, G. Jomard, S. Leroux, M. Mancini, S. Mazevet,
- M.J.T. Oliveira, G. Onida, Y. Pouillon, T. Rangel, G.-M. Rignanese, D. Sangalli, R. Shaltaf,
- M. Torrent, M.J. Verstraete, G. Zerah, J.W. Zwanziger
- Comment: the third generic paper describing the ABINIT project.
- Note that a version of this paper, that is not formatted for Computer Phys. Comm. 
- is available at https://www.abinit.org/sites/default/files/ABINIT_CPC_v10.pdf .
- The licence allows the authors to put it on the Web.
- DOI and bibtex: see https://docs.abinit.org/theory/bibliography/#gonze2009
 Proc.   0 individual time (sec): cpu=      19132.9  wall=      19258.5
 
 Calculation completed.
.Delivered   0 WARNINGs and   2 COMMENTs to log file.

--- !FinalSummary
program: abinit
version: 9.7.2
start_datetime: Sat Mar 05 00:19:27 2022
end_datetime: Sat Mar 05 05:40:25 2022
overall_cpu_time:     1835922.1
overall_wall_time:     1848791.3
exit_requested_by_user: no 
timelimit: 0
pseudos: 
    C   : c654b01b9d50d97c5308503e02772833
    H   : 7109fe59811bb9b2bbf03a2a890c4d73
usepaw: 0
mpi_procs: 96
omp_threads: 1
num_warnings: 0
num_comments: 2
...
