
.Version 9.7.2 of ABINIT 
.(MPI version, prepared for a x86_64_linux_intel2021.2 computer) 

.Copyright (C) 1998-2021 ABINIT group . 
 ABINIT comes with ABSOLUTELY NO WARRANTY.
 It is free software, and you are welcome to redistribute it
 under certain conditions (GNU General Public License,
 see ~abinit/COPYING or http://www.gnu.org/copyleft/gpl.txt).

 ABINIT is a project of the Universite Catholique de Louvain,
 Corning Inc. and other collaborators, see ~abinit/doc/developers/contributors.txt .
 Please read https://docs.abinit.org/theory/acknowledgments for suggested
 acknowledgments of the ABINIT effort.
 For more information, see https://www.abinit.org .

.Starting date : Wed 23 Feb 2022.
- ( at 23h27 )
  
- input  file    -> ./3H-2110_gw.abi
- output file    -> 3H-2110_gw.abo
- root for input  files -> 3H-2110_gw_i
- root for output files -> 3H-2110_gw_o
 
 
 DATASET    1 : space group Pb c m (# 57); Bravais oP (primitive ortho.)
================================================================================
 Values of the parameters that define the memory need for DATASET  1.
     intxc =       0    ionmov =       0      iscf =       7    lmnmax =       1
     lnmax =       1     mgfft =     540  mpssoang =       2    mqgrid =   25866
     natom =      32  nloc_mem =       1    nspden =       1   nspinor =       1
    nsppol =       1      nsym =       8    n1xccc =       0    ntypat =       2
    occopt =       1   xclevel =       2
-    mband =         104        mffmem =           1         mkmem =          16
       mpw =       90853          nfft =     1574640          nkpt =          16
================================================================================
P This job should need less than                    2823.395 Mbytes of memory.
  Rough estimation (10% accuracy) of disk space for files :
_ WF disk file :   2306.816 Mbytes ; DEN or POT disk file :     12.016 Mbytes.
================================================================================
 
--------------------------------------------------------------------------------
------------- Echo of variables that govern the present computation ------------
--------------------------------------------------------------------------------
-
- outvars: echo of selected default values                                      
-   iomode0 =  0 , fftalg0 =512 , wfoptalg0 =  0
-
- outvars: echo of global parameters not present in the input file              
-  max_nthreads =    0
-
 -outvars: echo values of preprocessed input variables --------
            acell      7.9710703563E+00  8.2924089954E+00  8.1258223714E+01 Bohr
              amu      1.20110000E+01  1.00794000E+00
          chkprim           0
           diemac      1.20000000E+01
             ecut      5.00000000E+01 Hartree
-          fftalg         512
      gw_icutcoul           2
           istwfk        1    0    0    1    0    0    0    0    0    0
                         0    0    1    0    0    1
              ixc     -208012
           jdtset        1
              kpt      0.00000000E+00  0.00000000E+00  0.00000000E+00
                       1.66666667E-01  0.00000000E+00  0.00000000E+00
                       3.33333333E-01  0.00000000E+00  0.00000000E+00
                       5.00000000E-01  0.00000000E+00  0.00000000E+00
                       0.00000000E+00  1.66666667E-01  0.00000000E+00
                       1.66666667E-01  1.66666667E-01  0.00000000E+00
                       3.33333333E-01  1.66666667E-01  0.00000000E+00
                       5.00000000E-01  1.66666667E-01  0.00000000E+00
                       0.00000000E+00  3.33333333E-01  0.00000000E+00
                       1.66666667E-01  3.33333333E-01  0.00000000E+00
                       3.33333333E-01  3.33333333E-01  0.00000000E+00
                       5.00000000E-01  3.33333333E-01  0.00000000E+00
                       0.00000000E+00  5.00000000E-01  0.00000000E+00
                       1.66666667E-01  5.00000000E-01  0.00000000E+00
                       3.33333333E-01  5.00000000E-01  0.00000000E+00
                       5.00000000E-01  5.00000000E-01  0.00000000E+00
         kptrlatt        6    0    0      0    6    0      0    0    1
          kptrlen      4.78264221E+01
P           mkmem          16
            natom          32
            nband         104
           ndtset           1
            ngfft          54      54     540
             nkpt          16
            nstep         100
             nsym           8
           ntypat           2
              occ      2.000000  2.000000  2.000000  2.000000  2.000000  2.000000
                       2.000000  2.000000  2.000000  2.000000  2.000000  2.000000
                       2.000000  2.000000  2.000000  2.000000  2.000000  2.000000
                       2.000000  2.000000  2.000000  2.000000  2.000000  2.000000
                       2.000000  2.000000  2.000000  2.000000  2.000000  2.000000
                       2.000000  2.000000  2.000000  2.000000  2.000000  2.000000
                       2.000000  2.000000  2.000000  2.000000  2.000000  2.000000
                       2.000000  2.000000  2.000000  2.000000  2.000000  2.000000
                       2.000000  2.000000  2.000000  2.000000  0.000000  0.000000
                       0.000000  0.000000  0.000000  0.000000  0.000000  0.000000
                       0.000000  0.000000  0.000000  0.000000  0.000000  0.000000
                       0.000000  0.000000  0.000000  0.000000  0.000000  0.000000
                       0.000000  0.000000  0.000000  0.000000  0.000000  0.000000
                       0.000000  0.000000  0.000000  0.000000  0.000000  0.000000
                       0.000000  0.000000  0.000000  0.000000  0.000000  0.000000
                       0.000000  0.000000  0.000000  0.000000  0.000000  0.000000
                       0.000000  0.000000  0.000000  0.000000  0.000000  0.000000
                       0.000000  0.000000
          prtkden           1
          spgroup          57
           symrel      1  0  0   0  1  0   0  0  1      -1  0  0   0 -1  0   0  0 -1
                      -1  0  0   0  1  0   0  0 -1       1  0  0   0 -1  0   0  0  1
                      -1  0  0   0 -1  0   0  0  1       1  0  0   0  1  0   0  0 -1
                       1  0  0   0 -1  0   0  0 -1      -1  0  0   0  1  0   0  0  1
            tnons      0.0000000  0.0000000  0.0000000    -0.0000000  0.0000000  0.0000000
                       0.5000000  0.5000000  0.0000000     0.5000000  0.5000000  0.0000000
                      -0.0000000  0.5000000  0.0000000     0.0000000  0.5000000  0.0000000
                       0.5000000  0.0000000  0.0000000     0.5000000  0.0000000  0.0000000
           tolsym      1.00000000E-04
           tolvrs      1.00000000E-10
            typat      1  1  1  1  1  1  1  1  1  1  1  1  1  1  1  1  1  1  1  1
                       1  1  1  1  2  2  2  2  2  2  2  2
          usekden           1
          vcutgeo      1.0000000  1.0000000  0.0000000
              wtk        0.02778    0.05556    0.05556    0.02778    0.05556    0.11111
                         0.11111    0.05556    0.05556    0.11111    0.11111    0.05556
                         0.02778    0.05556    0.05556    0.02778
           xangst      1.8274779776E+00  1.8068254512E+00  1.8390210999E+01
                       2.3906307830E+00  2.5813283935E+00  2.4609789001E+01
                       3.9365323579E+00  2.5813283935E+00  2.4609789001E+01
                       2.8157640269E-01  1.8068254512E+00  1.8390210999E+01
                       2.8157640269E-01  4.0009023735E+00  2.4609789001E+01
                       3.9365323579E+00  3.8725147116E-01  1.8390210999E+01
                       2.3906307830E+00  3.8725147116E-01  1.8390210999E+01
                       1.8274779776E+00  4.0009023735E+00  2.4609789001E+01
                       1.8453529137E+00  1.8292891124E+00  2.0872377757E+01
                       2.3727558469E+00  2.5588647323E+00  2.2127622243E+01
                       3.9544072941E+00  2.5588647323E+00  2.2127622243E+01
                       2.6370146656E-01  1.8292891124E+00  2.0872377757E+01
                       2.6370146656E-01  4.0233660347E+00  2.2127622243E+01
                       3.9544072941E+00  3.6478780997E-01  2.0872377757E+01
                       2.3727558469E+00  3.6478780997E-01  2.0872377757E+01
                       1.8453529137E+00  4.0233660347E+00  2.2127622243E+01
                       1.8439494302E+00  1.8248219548E+00  2.3386652101E+01
                       2.3741593304E+00  2.5633318899E+00  1.9613347899E+01
                       3.9530038105E+00  2.5633318899E+00  1.9613347899E+01
                       2.6510495009E-01  1.8248219548E+00  2.3386652101E+01
                       2.6510495009E-01  4.0188988771E+00  1.9613347899E+01
                       3.9530038105E+00  3.6925496756E-01  2.3386652101E+01
                       2.3741593304E+00  3.6925496756E-01  2.3386652101E+01
                       1.8439494302E+00  4.0188988771E+00  1.9613347899E+01
                       5.5135131688E-02  4.2776651549E+00  1.7473225849E+01
                       4.1629736289E+00  1.1048868981E-01  2.5526774151E+01
                       2.1641895120E+00  1.1048868981E-01  2.5526774151E+01
                       2.0539192486E+00  4.2776651549E+00  1.7473225849E+01
                       2.0539192486E+00  2.0835882325E+00  2.5526774151E+01
                       2.1641895120E+00  2.3045656121E+00  1.7473225849E+01
                       4.1629736289E+00  2.3045656121E+00  1.7473225849E+01
                       5.5135131688E-02  2.0835882325E+00  2.5526774151E+01
            xcart      3.4534328916E+00  3.4144052727E+00  3.4752462313E+01
                       4.5176374647E+00  4.8780037227E+00  4.6505761401E+01
                       7.4389680697E+00  4.8780037227E+00  4.6505761401E+01
                       5.3210228657E-01  3.4144052727E+00  3.4752462313E+01
                       5.3210228657E-01  7.5606097704E+00  4.6505761401E+01
                       7.4389680697E+00  7.3179922505E-01  3.4752462313E+01
                       4.5176374647E+00  7.3179922505E-01  3.4752462313E+01
                       3.4534328916E+00  7.5606097704E+00  4.6505761401E+01
                       3.4872116255E+00  3.4568554402E+00  3.9443077703E+01
                       4.4838587308E+00  4.8355535552E+00  4.1815146011E+01
                       7.4727468037E+00  4.8355535552E+00  4.1815146011E+01
                       4.9832355264E-01  3.4568554402E+00  3.9443077703E+01
                       4.9832355264E-01  7.6030599379E+00  4.1815146011E+01
                       7.4727468037E+00  6.8934905746E-01  3.9443077703E+01
                       4.4838587308E+00  6.8934905746E-01  3.9443077703E+01
                       3.4872116255E+00  7.6030599379E+00  4.1815146011E+01
                       3.4845594260E+00  3.4484137358E+00  4.4194367636E+01
                       4.4865109303E+00  4.8439952596E+00  3.7063856078E+01
                       7.4700946042E+00  4.8439952596E+00  3.7063856078E+01
                       5.0097575214E-01  3.4484137358E+00  4.4194367636E+01
                       5.0097575214E-01  7.5946182335E+00  3.7063856078E+01
                       7.4700946042E+00  6.9779076190E-01  4.4194367636E+01
                       4.4865109303E+00  6.9779076190E-01  4.4194367636E+01
                       3.4845594260E+00  7.5946182335E+00  3.7063856078E+01
                       1.0419029919E-01  8.0836156309E+00  3.3019611513E+01
                       7.8668800571E+00  2.0879336453E-01  4.8238612201E+01
                       4.0897254773E+00  2.0879336453E-01  4.8238612201E+01
                       3.8813448790E+00  8.0836156309E+00  3.3019611513E+01
                       3.8813448790E+00  3.9374111332E+00  4.8238612201E+01
                       4.0897254773E+00  4.3549978622E+00  3.3019611513E+01
                       7.8668800571E+00  4.3549978622E+00  3.3019611513E+01
                       1.0419029919E-01  3.9374111332E+00  4.8238612201E+01
             xred      4.3324581734E-01  4.1175070773E-01  4.2767932555E-01
                       5.6675418266E-01  5.8824929227E-01  5.7232067445E-01
                       9.3324581734E-01  5.8824929227E-01  5.7232067445E-01
                       6.6754182661E-02  4.1175070773E-01  4.2767932555E-01
                       6.6754182661E-02  9.1175070773E-01  5.7232067445E-01
                       9.3324581734E-01  8.8249292269E-02  4.2767932555E-01
                       5.6675418266E-01  8.8249292269E-02  4.2767932555E-01
                       4.3324581734E-01  9.1175070773E-01  5.7232067445E-01
                       4.3748348335E-01  4.1686986763E-01  4.8540413389E-01
                       5.6251651665E-01  5.8313013237E-01  5.1459586611E-01
                       9.3748348335E-01  5.8313013237E-01  5.1459586611E-01
                       6.2516516649E-02  4.1686986763E-01  4.8540413389E-01
                       6.2516516649E-02  9.1686986763E-01  5.1459586611E-01
                       9.3748348335E-01  8.3130132371E-02  4.8540413389E-01
                       5.6251651665E-01  8.3130132371E-02  4.8540413389E-01
                       4.3748348335E-01  9.1686986763E-01  5.1459586611E-01
                       4.3715075520E-01  4.1585186376E-01  5.4387563026E-01
                       5.6284924480E-01  5.8414813624E-01  4.5612436974E-01
                       9.3715075520E-01  5.8414813624E-01  4.5612436974E-01
                       6.2849244800E-02  4.1585186376E-01  5.4387563026E-01
                       6.2849244800E-02  9.1585186376E-01  4.5612436974E-01
                       9.3715075520E-01  8.4148136240E-02  5.4387563026E-01
                       5.6284924480E-01  8.4148136240E-02  5.4387563026E-01
                       4.3715075520E-01  9.1585186376E-01  4.5612436974E-01
                       1.3071055019E-02  9.7482114490E-01  4.0635408952E-01
                       9.8692894498E-01  2.5178855100E-02  5.9364591048E-01
                       5.1307105502E-01  2.5178855100E-02  5.9364591048E-01
                       4.8692894498E-01  9.7482114490E-01  4.0635408952E-01
                       4.8692894498E-01  4.7482114490E-01  5.9364591048E-01
                       5.1307105502E-01  5.2517885510E-01  4.0635408952E-01
                       9.8692894498E-01  5.2517885510E-01  4.0635408952E-01
                       1.3071055019E-02  4.7482114490E-01  5.9364591048E-01
            znucl        6.00000    1.00000
 
================================================================================
 
 chkinp: Checking input parameters for consistency, jdtset=   1.
 
 abinit : before driver, prtvol=0, debugging mode => will skip driver
 
== END DATASET(S) ==============================================================
================================================================================
 
 abinit : before driver, prtvol=0, debugging mode => will skip outvars


- Timing analysis has been suppressed with timopt=0


 
 abinit : before driver, prtvol=0, debugging mode => will skip acknowledgments
-
- Proc.   0 individual time (sec): cpu=          0.1  wall=          0.3
 
================================================================================
 
 Calculation completed.
.Delivered   0 WARNINGs and   1 COMMENTs to log file.
+Overall time at end (sec) : cpu=          0.1  wall=          0.3
