
.Version 9.7.2 of ABINIT 
.(MPI version, prepared for a x86_64_linux_intel2021.2 computer) 

.Copyright (C) 1998-2021 ABINIT group . 
 ABINIT comes with ABSOLUTELY NO WARRANTY.
 It is free software, and you are welcome to redistribute it
 under certain conditions (GNU General Public License,
 see ~abinit/COPYING or http://www.gnu.org/copyleft/gpl.txt).

 ABINIT is a project of the Universite Catholique de Louvain,
 Corning Inc. and other collaborators, see ~abinit/doc/developers/contributors.txt .
 Please read https://docs.abinit.org/theory/acknowledgments for suggested
 acknowledgments of the ABINIT effort.
 For more information, see https://www.abinit.org .

.Starting date : Tue  1 Mar 2022.
- ( at 04h45 )
  
- input  file    -> ./3H-2110_gw.abi
- output file    -> 3H-2110_gw.abo
- root for input  files -> 3H-2110_gw_i
- root for output files -> 3H-2110_gw_o
 
 
 DATASET    2 : space group Pb c m (# 57); Bravais oP (primitive ortho.)
================================================================================
 Values of the parameters that define the memory need for DATASET  2.
     intxc =       0    ionmov =       0      iscf =      -2    lmnmax =       1
     lnmax =       1     mgfft =     540  mpssoang =       2    mqgrid =   25866
     natom =      32  nloc_mem =       1    nspden =       1   nspinor =       1
    nsppol =       1      nsym =       8    n1xccc =       0    ntypat =       2
    occopt =       1   xclevel =       2
-    mband =        1704        mffmem =           1         mkmem =           1
       mpw =       22714          nfft =     1574640          nkpt =          16
================================================================================
P This job should need less than                    1017.746 Mbytes of memory.
  Rough estimation (10% accuracy) of disk space for files :
_ WF disk file :   9449.381 Mbytes ; DEN or POT disk file :     12.016 Mbytes.
================================================================================
 
--------------------------------------------------------------------------------
------------- Echo of variables that govern the present computation ------------
--------------------------------------------------------------------------------
-
- outvars: echo of selected default values                                      
-   iomode0 =  0 , fftalg0 =512 , wfoptalg0 =  0
-
- outvars: echo of global parameters not present in the input file              
-  max_nthreads =    0
-
 -outvars: echo values of preprocessed input variables --------
-          iomode           1
            acell      7.9710703563E+00  8.2924089954E+00  8.1258223714E+01 Bohr
              amu      1.20110000E+01  1.00794000E+00
          chkprim           0
     densfor_pred           6
           diemac      1.20000000E+01
             ecut      5.00000000E+01 Hartree
-          fftalg         512
           getden           1
      gw_icutcoul           2
             iscf          -2
           istwfk        1    0    0    1    0    0    0    0    0    0
                         0    0    1    0    0    1
              ixc     -208012
           jdtset        2
              kpt      0.00000000E+00  0.00000000E+00  0.00000000E+00
                       1.66666667E-01  0.00000000E+00  0.00000000E+00
                       3.33333333E-01  0.00000000E+00  0.00000000E+00
                       5.00000000E-01  0.00000000E+00  0.00000000E+00
                       0.00000000E+00  1.66666667E-01  0.00000000E+00
                       1.66666667E-01  1.66666667E-01  0.00000000E+00
                       3.33333333E-01  1.66666667E-01  0.00000000E+00
                       5.00000000E-01  1.66666667E-01  0.00000000E+00
                       0.00000000E+00  3.33333333E-01  0.00000000E+00
                       1.66666667E-01  3.33333333E-01  0.00000000E+00
                       3.33333333E-01  3.33333333E-01  0.00000000E+00
                       5.00000000E-01  3.33333333E-01  0.00000000E+00
                       0.00000000E+00  5.00000000E-01  0.00000000E+00
                       1.66666667E-01  5.00000000E-01  0.00000000E+00
                       3.33333333E-01  5.00000000E-01  0.00000000E+00
                       5.00000000E-01  5.00000000E-01  0.00000000E+00
         kptrlatt        6    0    0      0    6    0      0    0    1
          kptrlen      4.78264221E+01
P           mkmem           1
            natom          32
            nband        1704
           nbdbuf         213
           ndtset           1
            ngfft          54      54     540
             nkpt          16
-          npband           4
-        np_spkpt          16
            nstep         100
             nsym           8
           ntypat           2
           ortalg          -2
        paral_kgb           1
          prtkden           1
          spgroup          57
           symrel      1  0  0   0  1  0   0  0  1      -1  0  0   0 -1  0   0  0 -1
                      -1  0  0   0  1  0   0  0 -1       1  0  0   0 -1  0   0  0  1
                      -1  0  0   0 -1  0   0  0  1       1  0  0   0  1  0   0  0 -1
                       1  0  0   0 -1  0   0  0 -1      -1  0  0   0  1  0   0  0  1
            tnons      0.0000000  0.0000000  0.0000000    -0.0000000  0.0000000  0.0000000
                       0.5000000  0.5000000  0.0000000     0.5000000  0.5000000  0.0000000
                      -0.0000000  0.5000000  0.0000000     0.0000000  0.5000000  0.0000000
                       0.5000000  0.0000000  0.0000000     0.5000000  0.0000000  0.0000000
           tolsym      1.00000000E-04
           tolwfr      1.00000000E-18
            typat      1  1  1  1  1  1  1  1  1  1  1  1  1  1  1  1  1  1  1  1
                       1  1  1  1  2  2  2  2  2  2  2  2
          usekden           1
          vcutgeo      1.0000000  1.0000000  0.0000000
         wfoptalg         114
              wtk        0.02778    0.05556    0.05556    0.02778    0.05556    0.11111
                         0.11111    0.05556    0.05556    0.11111    0.11111    0.05556
                         0.02778    0.05556    0.05556    0.02778
           xangst      1.8274779776E+00  1.8068254512E+00  1.8390210999E+01
                       2.3906307830E+00  2.5813283935E+00  2.4609789001E+01
                       3.9365323579E+00  2.5813283935E+00  2.4609789001E+01
                       2.8157640269E-01  1.8068254512E+00  1.8390210999E+01
                       2.8157640269E-01  4.0009023735E+00  2.4609789001E+01
                       3.9365323579E+00  3.8725147116E-01  1.8390210999E+01
                       2.3906307830E+00  3.8725147116E-01  1.8390210999E+01
                       1.8274779776E+00  4.0009023735E+00  2.4609789001E+01
                       1.8453529137E+00  1.8292891124E+00  2.0872377757E+01
                       2.3727558469E+00  2.5588647323E+00  2.2127622243E+01
                       3.9544072941E+00  2.5588647323E+00  2.2127622243E+01
                       2.6370146656E-01  1.8292891124E+00  2.0872377757E+01
                       2.6370146656E-01  4.0233660347E+00  2.2127622243E+01
                       3.9544072941E+00  3.6478780997E-01  2.0872377757E+01
                       2.3727558469E+00  3.6478780997E-01  2.0872377757E+01
                       1.8453529137E+00  4.0233660347E+00  2.2127622243E+01
                       1.8439494302E+00  1.8248219548E+00  2.3386652101E+01
                       2.3741593304E+00  2.5633318899E+00  1.9613347899E+01
                       3.9530038105E+00  2.5633318899E+00  1.9613347899E+01
                       2.6510495009E-01  1.8248219548E+00  2.3386652101E+01
                       2.6510495009E-01  4.0188988771E+00  1.9613347899E+01
                       3.9530038105E+00  3.6925496756E-01  2.3386652101E+01
                       2.3741593304E+00  3.6925496756E-01  2.3386652101E+01
                       1.8439494302E+00  4.0188988771E+00  1.9613347899E+01
                       5.5135131688E-02  4.2776651549E+00  1.7473225849E+01
                       4.1629736289E+00  1.1048868981E-01  2.5526774151E+01
                       2.1641895120E+00  1.1048868981E-01  2.5526774151E+01
                       2.0539192486E+00  4.2776651549E+00  1.7473225849E+01
                       2.0539192486E+00  2.0835882325E+00  2.5526774151E+01
                       2.1641895120E+00  2.3045656121E+00  1.7473225849E+01
                       4.1629736289E+00  2.3045656121E+00  1.7473225849E+01
                       5.5135131688E-02  2.0835882325E+00  2.5526774151E+01
            xcart      3.4534328916E+00  3.4144052727E+00  3.4752462313E+01
                       4.5176374647E+00  4.8780037227E+00  4.6505761401E+01
                       7.4389680697E+00  4.8780037227E+00  4.6505761401E+01
                       5.3210228657E-01  3.4144052727E+00  3.4752462313E+01
                       5.3210228657E-01  7.5606097704E+00  4.6505761401E+01
                       7.4389680697E+00  7.3179922505E-01  3.4752462313E+01
                       4.5176374647E+00  7.3179922505E-01  3.4752462313E+01
                       3.4534328916E+00  7.5606097704E+00  4.6505761401E+01
                       3.4872116255E+00  3.4568554402E+00  3.9443077703E+01
                       4.4838587308E+00  4.8355535552E+00  4.1815146011E+01
                       7.4727468037E+00  4.8355535552E+00  4.1815146011E+01
                       4.9832355264E-01  3.4568554402E+00  3.9443077703E+01
                       4.9832355264E-01  7.6030599379E+00  4.1815146011E+01
                       7.4727468037E+00  6.8934905746E-01  3.9443077703E+01
                       4.4838587308E+00  6.8934905746E-01  3.9443077703E+01
                       3.4872116255E+00  7.6030599379E+00  4.1815146011E+01
                       3.4845594260E+00  3.4484137358E+00  4.4194367636E+01
                       4.4865109303E+00  4.8439952596E+00  3.7063856078E+01
                       7.4700946042E+00  4.8439952596E+00  3.7063856078E+01
                       5.0097575214E-01  3.4484137358E+00  4.4194367636E+01
                       5.0097575214E-01  7.5946182335E+00  3.7063856078E+01
                       7.4700946042E+00  6.9779076190E-01  4.4194367636E+01
                       4.4865109303E+00  6.9779076190E-01  4.4194367636E+01
                       3.4845594260E+00  7.5946182335E+00  3.7063856078E+01
                       1.0419029919E-01  8.0836156309E+00  3.3019611513E+01
                       7.8668800571E+00  2.0879336453E-01  4.8238612201E+01
                       4.0897254773E+00  2.0879336453E-01  4.8238612201E+01
                       3.8813448790E+00  8.0836156309E+00  3.3019611513E+01
                       3.8813448790E+00  3.9374111332E+00  4.8238612201E+01
                       4.0897254773E+00  4.3549978622E+00  3.3019611513E+01
                       7.8668800571E+00  4.3549978622E+00  3.3019611513E+01
                       1.0419029919E-01  3.9374111332E+00  4.8238612201E+01
             xred      4.3324581734E-01  4.1175070773E-01  4.2767932555E-01
                       5.6675418266E-01  5.8824929227E-01  5.7232067445E-01
                       9.3324581734E-01  5.8824929227E-01  5.7232067445E-01
                       6.6754182661E-02  4.1175070773E-01  4.2767932555E-01
                       6.6754182661E-02  9.1175070773E-01  5.7232067445E-01
                       9.3324581734E-01  8.8249292269E-02  4.2767932555E-01
                       5.6675418266E-01  8.8249292269E-02  4.2767932555E-01
                       4.3324581734E-01  9.1175070773E-01  5.7232067445E-01
                       4.3748348335E-01  4.1686986763E-01  4.8540413389E-01
                       5.6251651665E-01  5.8313013237E-01  5.1459586611E-01
                       9.3748348335E-01  5.8313013237E-01  5.1459586611E-01
                       6.2516516649E-02  4.1686986763E-01  4.8540413389E-01
                       6.2516516649E-02  9.1686986763E-01  5.1459586611E-01
                       9.3748348335E-01  8.3130132371E-02  4.8540413389E-01
                       5.6251651665E-01  8.3130132371E-02  4.8540413389E-01
                       4.3748348335E-01  9.1686986763E-01  5.1459586611E-01
                       4.3715075520E-01  4.1585186376E-01  5.4387563026E-01
                       5.6284924480E-01  5.8414813624E-01  4.5612436974E-01
                       9.3715075520E-01  5.8414813624E-01  4.5612436974E-01
                       6.2849244800E-02  4.1585186376E-01  5.4387563026E-01
                       6.2849244800E-02  9.1585186376E-01  4.5612436974E-01
                       9.3715075520E-01  8.4148136240E-02  5.4387563026E-01
                       5.6284924480E-01  8.4148136240E-02  5.4387563026E-01
                       4.3715075520E-01  9.1585186376E-01  4.5612436974E-01
                       1.3071055019E-02  9.7482114490E-01  4.0635408952E-01
                       9.8692894498E-01  2.5178855100E-02  5.9364591048E-01
                       5.1307105502E-01  2.5178855100E-02  5.9364591048E-01
                       4.8692894498E-01  9.7482114490E-01  4.0635408952E-01
                       4.8692894498E-01  4.7482114490E-01  5.9364591048E-01
                       5.1307105502E-01  5.2517885510E-01  4.0635408952E-01
                       9.8692894498E-01  5.2517885510E-01  4.0635408952E-01
                       1.3071055019E-02  4.7482114490E-01  5.9364591048E-01
            znucl        6.00000    1.00000
 
================================================================================
 
 chkinp: Checking input parameters for consistency, jdtset=   2.
 
================================================================================
== DATASET  2 ==================================================================
-   mpi_nproc: 64, omp_nthreads: -1 (-1 if OMP is not activated)
 

--- !DatasetInfo
iteration_state: {dtset: 2, }
dimensions: {natom: 32, nkpt: 16, mband: 1704, nsppol: 1, nspinor: 1, nspden: 1, mpw: 22714, }
cutoff_energies: {ecut:  50.0, pawecutdg:  -1.0, }
electrons: {nelect:   1.04000000E+02, charge:   0.00000000E+00, occopt:   1.00000000E+00, tsmear:   1.00000000E-02, }
meta: {optdriver: 0, ionmov: 0, optcell: 0, iscf: -2, paral_kgb: 1, }
...

 mkfilename : getden/=0, take file _DEN from output of DATASET   1.
 
 mkfilename : getkden/=0, take file _KDEN from output of DATASET   1.
 
 Real(R)+Recip(G) space primitive vectors, cartesian coordinates (Bohr,Bohr^-1):
 R(1)=  7.9710704  0.0000000  0.0000000  G(1)=  0.1254537  0.0000000  0.0000000
 R(2)=  0.0000000  8.2924090  0.0000000  G(2)=  0.0000000  0.1205922  0.0000000
 R(3)=  0.0000000  0.0000000 81.2582237  G(3)=  0.0000000  0.0000000  0.0123064
 Unit cell volume ucvol=  5.3711178E+03 bohr^3
 Angles (23,13,12)=  9.00000000E+01  9.00000000E+01  9.00000000E+01 degrees
 
 getcut: wavevector=  0.0000  0.0000  0.0000  ngfft=  54  54 540
         ecut(hartree)=     50.000   => boxcut(ratio)=   2.04580
 
--- Pseudopotential description ------------------------------------------------
- pspini: atom type   1  psp file is ../6c.4.hgh
- pspatm: opening atomic psp file    ../6c.4.hgh
- Hartwigsen-Goedecker-Hutter psp for C,  from PRB58, 3641 (1998)
-  6.00000   4.00000     10605                znucl, zion, pspdat
    3    1    1    0      2001   0.00000      pspcod,pspxc,lmax,lloc,mmax,r2well
 rloc=   0.3488300
 cc1 =  -8.5137710; cc2 =   1.2284320; cc3 =   0.0000000; cc4 =   0.0000000
 rrs =   0.3045530; h11s=   9.5228420; h22s=   0.0000000; h33s=   0.0000000
 rrp =   0.2326770; h11p=   0.0000000; h22p=   0.0000000; h33p=   0.0000000
                    k11p=   0.0041040; k22p=   0.0000000; k33p=   0.0000000
-  Local part computed in reciprocal space.
 
 pspatm : COMMENT -
  the projectors are not normalized,
  so that the KB energies are not consistent with 
  definition in PRB44, 8503 (1991). 
  However, this does not influence the results obtained hereafter.
  pspatm : epsatm=   -0.16969744
         --- l  ekb(1:nproj) -->
             0    0.953587
 pspatm: atomic psp has been read  and splines computed
 
- pspini: atom type   2  psp file is ../1h.1.hgh
- pspatm: opening atomic psp file    ../1h.1.hgh
- Hartwigsen-Goedecker-Hutter psp for H,  from PRB58, 3641 (1998)
-  1.00000   1.00000     10605                znucl, zion, pspdat
    3    1    0    0      2001   0.00000      pspcod,pspxc,lmax,lloc,mmax,r2well
 rloc=   0.2000000
 cc1 =  -4.1802370; cc2 =   0.7250750; cc3 =   0.0000000; cc4 =   0.0000000
 rrs =   0.0000000; h11s=   0.0000000; h22s=   0.0000000; h33s=   0.0000000
-  Local part computed in reciprocal space.
 
 pspatm : COMMENT -
  the projectors are not normalized,
  so that the KB energies are not consistent with 
  definition in PRB44, 8503 (1991). 
  However, this does not influence the results obtained hereafter.
  pspatm : epsatm=   -0.00129784
         --- l  ekb(1:nproj) -->
 pspatm: atomic psp has been read  and splines computed
 
--------------------------------------------------------------------------------
 
 
================================================================================
 prteigrs : about to open file 3H-2110_gw_o_DS2_EIG
 Non-SCF case, kpt    1 (  0.00000  0.00000  0.00000), residuals and eigenvalues=
  3.96E-29  5.81E-29  7.38E-29  2.80E-29  1.90E-29  1.65E-29  2.52E-29  1.60E-29
  1.42E-29  6.51E-29  3.84E-30  1.21E-29  5.02E-30  1.16E-29  2.03E-30  2.30E-30
  1.92E-30  2.72E-29  1.99E-30  1.38E-29  3.69E-30  8.84E-30  1.31E-29  1.55E-30
  2.14E-30  3.02E-30  2.84E-30  2.56E-30  1.36E-30  2.27E-30  3.22E-30  4.77E-30
  3.09E-30  5.87E-30  1.23E-29  7.56E-30  2.96E-30  2.23E-30  1.12E-30  1.69E-30
  3.61E-30  1.74E-30  1.22E-30  1.03E-30  1.04E-30  7.00E-31  7.74E-31  1.12E-30
  1.45E-30  1.08E-30  1.57E-30  1.00E-30  9.90E-31  7.48E-31  1.92E-30  1.37E-30
  3.07E-30  2.47E-30  1.30E-30  2.86E-30  1.61E-30  1.69E-30  1.77E-30  1.26E-30
  1.97E-30  2.13E-30  3.38E-30  1.64E-30  2.21E-30  3.00E-30  5.45E-30  5.04E-30
  9.38E-30  2.15E-30  4.07E-30  4.43E-30  2.56E-30  5.61E-30  3.06E-30  6.29E-30
  2.91E-30  5.26E-30  7.95E-30  2.74E-30  2.52E-30  2.41E-30  8.90E-30  2.82E-30
  3.77E-30  5.52E-30  3.50E-30  3.05E-30  9.47E-30  5.72E-30  2.70E-30  9.46E-30
  1.04E-29  2.55E-30  6.29E-30  2.40E-29  2.41E-30  1.40E-29  3.18E-30  1.59E-30
  1.69E-29  6.05E-30  9.96E-30  3.14E-30  4.25E-30  4.80E-30  1.04E-29  5.22E-30
  4.24E-30  1.32E-29  4.71E-30  4.95E-30  3.53E-30  7.74E-29  2.73E-29  5.59E-30
  1.14E-29  5.34E-30  1.52E-29  4.54E-30  2.50E-29  1.82E-29  2.86E-29  1.58E-29
  4.64E-29  6.81E-30  4.07E-29  1.13E-29  6.78E-30  1.00E-29  4.47E-30  4.00E-30
  1.90E-29  4.96E-29  2.62E-29  5.89E-29  2.89E-30  7.37E-30  8.83E-30  5.78E-30
  6.16E-30  7.58E-30  9.04E-30  2.11E-29  4.04E-29  1.16E-28  7.18E-30  1.63E-29
  9.48E-30  2.47E-29  9.64E-30  2.10E-29  9.76E-30  1.19E-29  2.34E-29  2.69E-29
  2.20E-29  4.93E-30  8.34E-30  2.74E-30  3.90E-30  1.43E-29  1.69E-29  2.70E-29
  1.46E-29  5.94E-29  3.76E-29  4.84E-30  7.42E-29  2.08E-29  3.42E-29  1.42E-29
  5.49E-30  1.32E-29  4.65E-29  3.87E-30  4.56E-30  2.60E-29  3.34E-30  4.38E-29
  1.17E-28  5.49E-30  1.68E-28  1.59E-29  1.82E-29  1.42E-29  8.47E-30  4.95E-30
  2.69E-29  6.57E-30  6.22E-29  6.75E-30  1.14E-28  1.00E-29  5.63E-29  3.10E-29
  7.08E-30  5.86E-30  1.38E-29  1.14E-29  1.57E-29  3.24E-29  8.63E-30  1.90E-29
  1.56E-29  8.58E-30  2.61E-29  1.37E-29  6.81E-29  2.71E-29  9.72E-29  8.80E-30
  1.04E-29  9.28E-29  1.81E-29  8.39E-29  1.92E-29  5.86E-29  4.50E-29  1.11E-28
  2.59E-29  2.61E-29  2.97E-28  2.33E-28  4.77E-29  2.67E-28  8.63E-29  1.84E-29
  4.14E-29  5.10E-28  4.90E-29  4.68E-29  1.15E-29  2.25E-28  1.42E-28  8.86E-29
  3.60E-29  1.32E-28  1.27E-29  1.67E-29  6.65E-29  5.06E-29  1.47E-28  1.91E-29
  4.58E-29  2.26E-28  1.20E-28  1.57E-29  9.10E-30  1.20E-28  1.03E-28  1.13E-28
  2.41E-29  6.60E-29  3.62E-29  1.59E-29  1.31E-29  2.69E-29  2.38E-29  2.50E-29
  1.21E-29  1.31E-29  7.55E-29  1.32E-29  1.83E-29  4.46E-29  1.86E-29  2.26E-29
  2.47E-29  1.26E-29  2.26E-29  7.15E-29  2.31E-29  2.95E-29  4.84E-29  1.27E-29
  5.52E-29  2.05E-29  2.82E-29  2.13E-29  4.21E-29  9.48E-29  5.47E-29  1.47E-29
  2.30E-29  2.67E-29  2.09E-28  1.69E-28  4.48E-29  1.52E-29  8.34E-30  8.86E-30
  6.49E-29  8.21E-29  1.90E-29  3.17E-29  9.55E-29  6.35E-29  2.74E-28  7.88E-29
  7.50E-28  1.31E-29  2.38E-29  6.44E-29  2.98E-29  1.62E-29  4.10E-29  4.42E-28
  2.51E-29  1.27E-29  2.70E-29  1.94E-28  2.20E-29  2.06E-29  1.46E-29  8.03E-29
  2.68E-28  2.68E-29  3.51E-29  3.34E-29  2.17E-28  5.79E-29  1.57E-29  4.58E-29
  7.04E-29  6.95E-29  5.15E-29  1.16E-28  7.50E-29  3.44E-29  7.75E-29  3.23E-29
  2.24E-29  2.08E-29  9.18E-29  2.17E-29  2.89E-29  1.53E-29  1.37E-28  5.89E-29
  3.70E-29  1.21E-29  2.43E-29  3.23E-29  2.54E-28  1.41E-28  4.52E-29  4.11E-29
  1.10E-29  3.11E-29  2.02E-29  1.99E-29  4.80E-29  7.15E-29  1.30E-29  3.43E-29
  1.51E-29  8.63E-29  1.51E-29  5.44E-29  4.94E-29  2.42E-29  2.74E-29  3.30E-28
  3.30E-29  5.37E-29  2.67E-29  6.24E-29  1.48E-29  4.46E-29  2.41E-29  1.18E-29
  1.49E-28  1.87E-29  7.46E-29  4.38E-29  7.82E-29  7.17E-29  1.56E-29  4.76E-29
  1.27E-29  3.55E-29  1.09E-29  1.72E-28  9.70E-30  2.86E-28  1.93E-29  2.79E-29
  6.27E-29  1.78E-29  4.30E-29  4.92E-29  1.18E-29  3.01E-29  3.90E-29  1.03E-28
  7.42E-29  2.84E-28  7.68E-29  1.62E-29  2.62E-28  6.22E-29  1.36E-28  1.28E-28
  6.48E-29  8.97E-30  4.14E-29  3.84E-29  2.59E-28  9.03E-30  5.75E-29  1.66E-28
  2.86E-29  4.64E-29  4.09E-29  1.66E-29  1.52E-29  1.38E-28  1.38E-29  2.71E-29
  2.29E-29  3.99E-29  2.24E-29  1.41E-29  2.26E-28  2.03E-29  1.74E-28  1.61E-29
  5.67E-29  4.22E-29  1.78E-29  2.58E-29  2.45E-28  3.29E-29  3.67E-29  1.16E-28
  1.50E-29  4.84E-29  4.60E-29  2.53E-29  1.69E-29  1.77E-29  6.79E-29  1.15E-29
  4.73E-29  3.62E-29  8.60E-29  1.17E-28  3.51E-28  3.78E-29  5.59E-29  5.39E-29
  8.40E-29  9.17E-30  1.28E-28  4.72E-29  2.31E-28  6.36E-29  9.88E-29  4.32E-29
  6.81E-29  8.84E-29  5.15E-29  1.68E-29  2.03E-29  1.54E-28  1.52E-28  8.68E-30
  3.17E-28  2.55E-29  1.19E-29  4.55E-29  5.70E-29  2.23E-28  1.87E-28  2.95E-29
  8.37E-30  1.15E-29  1.10E-29  1.43E-28  1.63E-29  3.44E-29  1.51E-29  3.37E-29
  1.58E-29  5.82E-29  1.73E-29  1.92E-29  3.85E-29  3.37E-29  6.34E-30  4.72E-29
  4.10E-29  2.22E-29  2.15E-29  1.47E-29  1.07E-29  1.34E-29  5.31E-29  8.85E-30
  6.72E-29  8.12E-30  2.11E-29  4.30E-29  1.09E-28  5.03E-29  9.62E-30  2.35E-29
  1.73E-29  1.08E-28  2.77E-29  1.05E-29  3.32E-29  3.97E-29  3.76E-29  8.49E-30
  1.25E-29  6.79E-30  5.09E-29  9.70E-30  1.03E-29  1.02E-29  5.27E-29  1.76E-29
  2.18E-29  3.45E-29  6.81E-29  3.80E-29  6.86E-29  3.59E-29  1.98E-29  9.96E-30
  4.24E-29  9.29E-30  3.68E-29  3.43E-29  5.94E-29  2.61E-29  1.50E-28  2.97E-29
  1.42E-29  7.70E-30  1.23E-29  7.89E-30  2.60E-29  2.20E-29  2.68E-29  6.01E-29
  9.01E-29  3.91E-29  3.42E-29  8.19E-29  2.29E-29  7.21E-29  1.14E-29  1.24E-29
  9.25E-29  8.43E-29  1.56E-29  7.79E-30  2.73E-29  8.66E-30  1.00E-28  1.52E-29
  1.53E-29  7.37E-29  3.55E-29  2.12E-29  5.66E-29  7.84E-29  3.27E-29  1.06E-29
  6.42E-29  3.67E-29  5.71E-28  1.43E-29  6.10E-30  3.46E-29  8.32E-30  8.25E-30
  5.61E-30  7.83E-29  5.78E-29  1.35E-28  1.53E-29  7.73E-30  1.87E-29  1.02E-28
  1.69E-29  1.47E-29  5.14E-30  5.28E-29  4.30E-29  9.76E-29  2.14E-29  1.43E-29
  3.35E-29  1.20E-28  3.71E-29  5.42E-29  7.80E-29  2.27E-28  5.01E-30  3.99E-29
  2.12E-29  6.55E-30  8.69E-30  9.41E-30  2.81E-29  1.59E-28  3.35E-29  1.06E-29
  1.20E-29  1.97E-29  6.87E-29  1.44E-28  3.70E-29  1.42E-29  1.38E-28  4.96E-29
  7.45E-30  1.40E-28  2.05E-28  1.86E-28  9.33E-30  6.17E-29  8.97E-29  7.92E-29
  1.78E-29  2.10E-29  2.08E-29  9.59E-30  1.79E-28  7.06E-30  1.05E-28  7.90E-30
  2.96E-29  5.12E-30  2.50E-29  1.29E-29  6.13E-29  3.56E-28  5.08E-29  1.94E-29
  3.18E-29  2.28E-29  1.53E-29  1.12E-28  2.03E-29  8.71E-30  5.11E-30  4.80E-30
  4.51E-29  2.30E-29  4.41E-29  1.07E-29  1.73E-29  1.72E-29  2.90E-29  6.45E-29
  1.04E-29  1.14E-29  1.37E-29  5.18E-29  2.63E-29  3.95E-29  1.29E-29  1.83E-29
  3.81E-29  8.58E-29  1.23E-29  3.60E-29  1.68E-29  9.31E-29  6.78E-30  2.10E-29
  5.68E-30  8.16E-29  3.52E-29  1.62E-29  1.03E-28  1.43E-28  9.57E-29  2.56E-29
  9.68E-30  8.87E-30  5.04E-30  1.14E-28  1.75E-28  8.02E-30  5.78E-30  4.11E-29
  2.08E-29  1.81E-28  7.97E-30  1.88E-29  1.66E-28  1.09E-29  3.78E-29  1.03E-28
  3.85E-29  5.44E-29  1.75E-28  2.03E-29  4.05E-29  1.23E-28  1.33E-29  6.59E-30
  4.12E-29  1.24E-29  5.23E-29  2.39E-29  4.97E-29  2.16E-29  1.14E-29  1.70E-28
  3.92E-29  6.25E-29  7.52E-30  3.30E-29  2.10E-28  8.13E-30  5.40E-29  8.02E-29
  4.17E-29  7.11E-30  2.83E-29  2.87E-29  2.18E-28  1.84E-29  1.39E-29  2.27E-28
  1.17E-28  6.46E-29  7.04E-29  2.82E-29  3.49E-29  1.73E-28  6.95E-29  7.97E-30
  9.79E-29  1.96E-29  1.67E-29  9.64E-30  8.00E-29  2.42E-29  4.69E-29  5.98E-28
  5.51E-29  5.77E-29  5.30E-29  1.55E-28  6.12E-29  2.27E-29  2.34E-29  1.77E-29
  9.68E-29  9.21E-29  6.90E-29  7.71E-29  5.20E-30  1.65E-29  1.63E-28  9.60E-30
  1.07E-29  8.63E-30  4.69E-29  2.86E-29  9.94E-29  1.84E-29  7.40E-30  9.67E-30
  8.02E-30  1.69E-28  5.12E-29  3.04E-29  1.18E-28  1.54E-29  9.22E-30  2.79E-29
  1.50E-29  1.09E-29  4.72E-29  5.15E-29  8.73E-29  4.68E-29  4.86E-29  2.09E-29
  5.80E-29  7.76E-30  4.16E-29  1.58E-29  8.47E-30  9.97E-29  3.68E-29  3.33E-29
  7.49E-29  2.03E-28  5.55E-29  5.01E-29  1.81E-29  6.50E-29  6.51E-30  1.05E-29
  3.25E-29  5.61E-29  3.28E-29  6.70E-30  1.03E-29  3.67E-29  3.01E-28  7.00E-29
  7.40E-30  7.81E-30  1.11E-28  3.34E-29  1.80E-29  2.54E-29  6.38E-29  6.61E-30
  1.60E-28  5.43E-29  2.06E-29  1.00E-29  1.72E-29  9.05E-30  1.63E-29  5.17E-29
  4.77E-29  3.39E-28  2.95E-29  1.19E-28  5.91E-29  1.19E-29  1.08E-29  6.15E-29
  5.00E-29  5.49E-29  8.69E-29  3.92E-28  1.50E-28  6.48E-30  3.67E-29  1.25E-28
  1.13E-29  7.09E-29  1.28E-28  1.62E-29  1.80E-29  1.36E-28  2.46E-28  3.32E-29
  6.47E-30  4.65E-28  7.97E-29  1.61E-29  1.19E-29  3.58E-29  5.58E-29  4.50E-29
  7.58E-30  1.45E-29  8.02E-30  3.99E-29  3.09E-29  3.57E-29  1.87E-29  1.91E-29
  3.15E-29  2.72E-29  7.43E-30  6.42E-30  8.44E-29  2.78E-29  1.39E-29  1.29E-28
  7.44E-29  3.48E-28  1.00E-29  1.53E-28  4.55E-29  1.66E-29  4.81E-30  2.15E-29
  2.84E-28  6.31E-29  5.43E-30  6.72E-29  4.26E-29  3.02E-29  4.30E-29  1.17E-29
  8.50E-30  6.98E-29  2.08E-28  1.63E-28  3.56E-29  4.01E-29  1.08E-29  1.81E-28
  2.12E-29  8.41E-30  5.73E-29  9.04E-30  9.10E-29  7.00E-30  1.24E-29  4.61E-29
  5.46E-29  1.22E-29  2.43E-28  1.09E-28  2.05E-29  3.09E-29  1.91E-29  5.66E-29
  5.34E-29  1.05E-29  7.25E-30  9.18E-29  1.91E-29  2.16E-28  1.38E-29  3.09E-28
  2.30E-28  5.14E-30  1.29E-28  1.18E-28  6.86E-29  1.06E-29  4.38E-29  7.36E-30
  1.63E-28  1.76E-28  6.12E-29  7.02E-30  7.39E-30  6.55E-30  4.64E-29  1.40E-29
  1.06E-28  3.36E-29  6.50E-30  2.20E-29  1.21E-29  4.29E-29  5.55E-30  1.44E-29
  1.71E-29  5.29E-30  6.56E-29  1.15E-29  1.06E-28  7.34E-29  4.83E-30  1.16E-29
  2.00E-29  5.97E-29  8.91E-29  1.43E-28  5.09E-30  6.25E-30  1.35E-29  3.04E-29
  1.93E-29  4.49E-29  2.32E-28  9.93E-30  3.03E-29  2.48E-29  1.52E-29  2.81E-29
  1.59E-29  3.13E-29  2.85E-29  1.58E-29  5.43E-29  1.51E-29  7.34E-29  6.75E-30
  6.67E-29  9.61E-30  1.27E-28  4.95E-30  4.09E-29  1.39E-28  1.05E-29  3.45E-29
  1.04E-28  9.63E-29  4.98E-29  9.11E-30  3.99E-29  1.65E-29  6.06E-30  1.91E-29
  5.95E-30  8.71E-30  2.59E-29  1.89E-29  8.07E-29  8.63E-29  9.72E-29  1.18E-28
  2.26E-28  2.21E-29  2.49E-29  4.86E-30  4.23E-30  5.49E-29  1.54E-29  2.30E-28
  8.44E-29  1.92E-28  2.49E-29  2.04E-28  6.49E-30  1.09E-29  9.09E-30  2.82E-29
  9.82E-30  5.21E-30  1.11E-29  5.57E-29  7.10E-29  6.97E-30  4.57E-29  1.22E-28
  4.53E-29  1.26E-28  1.76E-28  1.27E-29  6.69E-30  6.39E-30  5.33E-29  2.41E-29
  4.17E-29  1.91E-28  3.05E-29  2.26E-28  8.59E-30  1.04E-28  6.53E-30  2.52E-29
  8.93E-30  5.64E-30  2.28E-29  1.55E-29  9.81E-30  1.99E-29  1.36E-29  5.18E-30
  1.50E-29  1.24E-29  1.10E-29  9.93E-29  2.57E-29  8.25E-30  1.41E-29  1.86E-29
  5.15E-30  1.58E-28  9.50E-29  2.55E-28  8.01E-29  1.22E-29  1.45E-29  1.46E-29
  2.95E-29  9.45E-30  2.41E-29  7.08E-30  2.67E-29  5.90E-30  6.08E-30  8.22E-30
  9.88E-29  4.32E-30  1.76E-29  2.75E-29  6.92E-29  1.57E-29  3.06E-28  1.52E-28
  4.63E-29  2.61E-29  6.57E-29  2.50E-29  4.59E-29  1.12E-29  3.17E-29  1.72E-29
  9.07E-30  5.30E-30  2.50E-29  4.06E-29  1.11E-29  2.21E-29  1.49E-28  6.59E-29
  1.09E-28  2.26E-29  4.88E-29  1.29E-29  2.45E-29  3.21E-29  9.53E-30  1.55E-29
  1.60E-29  5.66E-30  1.55E-29  2.65E-29  2.58E-29  3.96E-29  1.85E-29  3.42E-29
  9.35E-30  5.78E-30  1.40E-29  2.96E-29  1.73E-29  6.20E-30  1.09E-29  5.38E-30
  1.37E-29  8.23E-29  6.88E-29  1.15E-29  8.21E-30  1.57E-29  7.88E-30  6.04E-30
  1.14E-29  1.86E-29  7.24E-30  1.09E-29  1.29E-28  7.29E-29  8.36E-29  1.73E-29
  1.46E-29  3.36E-28  3.92E-29  7.55E-30  7.83E-30  2.18E-29  3.96E-29  1.60E-29
  4.24E-29  5.96E-29  4.15E-29  1.02E-28  6.00E-30  1.97E-29  6.19E-29  3.60E-29
  1.51E-29  9.17E-30  8.11E-30  6.45E-30  3.72E-29  9.70E-30  5.01E-30  1.38E-29
  7.60E-30  8.55E-29  6.89E-29  7.20E-30  8.14E-30  5.77E-30  6.90E-30  6.26E-30
  3.04E-29  5.73E-29  4.60E-30  5.37E-30  1.88E-29  2.57E-29  1.76E-28  3.53E-29
  3.66E-29  6.59E-29  5.92E-29  8.03E-30  3.77E-30  8.55E-30  2.92E-29  5.01E-30
  7.38E-29  4.09E-29  3.10E-29  1.14E-29  4.50E-29  6.44E-29  1.86E-29  1.50E-29
  9.04E-30  5.21E-29  2.22E-29  2.23E-28  1.04E-29  7.22E-29  5.42E-29  2.52E-29
  8.69E-30  2.26E-29  1.21E-29  5.16E-29  6.53E-29  3.18E-29  1.64E-29  9.57E-30
  2.66E-29  2.00E-29  1.82E-29  2.50E-29  8.02E-29  7.35E-29  1.72E-28  1.61E-28
  1.84E-29  1.31E-29  1.29E-29  4.66E-29  1.77E-28  8.68E-30  3.03E-29  3.41E-29
  3.09E-29  1.07E-29  7.62E-30  3.27E-29  3.06E-29  2.76E-29  1.35E-28  1.17E-28
  8.24E-29  1.62E-29  9.76E-29  1.73E-29  3.82E-29  2.37E-29  1.27E-29  1.40E-29
  1.51E-29  2.03E-29  4.55E-29  1.09E-29  8.59E-30  1.72E-29  5.79E-29  2.30E-29
  1.42E-29  1.53E-29  1.05E-29  2.97E-29  2.27E-29  9.81E-29  1.69E-29  3.55E-29
  2.78E-29  3.92E-29  1.76E-28  1.95E-28  6.52E-29  1.64E-28  3.08E-29  2.14E-29
  3.07E-29  3.31E-29  1.34E-29  7.08E-29  2.15E-29  2.76E-29  4.61E-29  1.35E-29
  3.35E-29  2.31E-29  1.92E-29  5.43E-29  3.43E-29  3.23E-29  8.10E-29  4.40E-29
  4.11E-29  4.69E-29  5.93E-29  4.66E-29  1.88E-29  7.28E-29  8.97E-29  1.45E-28
  1.12E-28  1.19E-28  1.33E-28  7.82E-29  1.76E-28  3.55E-29  2.40E-28  1.82E-28
  7.50E-29  6.04E-29  6.34E-29  5.93E-29  4.16E-29  1.27E-28  8.65E-29  1.70E-28
  1.44E-28  9.75E-29  3.39E-28  1.40E-28  1.25E-28  2.09E-28  1.34E-28  1.08E-28
  1.42E-28  2.92E-28  2.79E-28  1.93E-28  2.55E-28  2.21E-28  3.03E-28  3.38E-28
  2.58E-28  2.23E-28  3.21E-28  7.90E-28  9.55E-28  9.32E-28  8.29E-28  6.03E-28
  3.15E-28  7.39E-28  1.60E-27  5.86E-28  7.69E-28  1.39E-27  1.88E-27  1.31E-27
  2.55E-27  1.11E-27  3.48E-27  2.48E-27  1.77E-27  1.74E-27  2.34E-27  5.60E-27
  1.11E-26  2.49E-27  3.05E-27  5.39E-27  3.56E-27  3.15E-27  3.67E-27  5.02E-27
  5.47E-27  6.80E-27  4.58E-27  6.63E-27  1.03E-26  6.95E-27  9.14E-27  1.22E-26
  4.66E-27  1.25E-26  8.85E-27  1.25E-26  1.70E-26  8.72E-27  1.59E-26  1.17E-26
  2.11E-26  3.04E-26  2.12E-26  5.60E-26  3.92E-26  1.96E-26  2.51E-26  4.65E-26
  4.58E-26  1.20E-25  9.27E-26  3.80E-26  9.83E-26  3.86E-26  8.96E-26  1.08E-25
  1.01E-25  1.19E-25  9.38E-26  1.73E-25  1.19E-25  3.38E-25  2.39E-25  1.53E-25
  4.28E-25  3.75E-25  3.37E-25  1.68E-25  6.93E-26  4.05E-25  5.38E-25  3.67E-25
  2.07E-25  1.17E-24  1.05E-24  1.41E-24  8.55E-25  2.38E-25  1.02E-24  1.74E-24
  9.06E-25  2.20E-24  2.19E-24  2.21E-24  1.23E-24  3.46E-24  6.20E-24  1.30E-24
  3.24E-24  8.56E-24  6.35E-24  8.51E-24  9.18E-24  1.91E-23  9.24E-24  1.08E-23
  8.00E-24  1.01E-23  2.35E-23  3.67E-23  1.01E-23  1.33E-23  6.65E-23  3.97E-23
  4.40E-23  4.44E-23  7.80E-23  3.92E-23  7.72E-23  1.27E-22  9.14E-23  6.22E-23
  7.11E-23  1.86E-22  1.12E-22  1.61E-22  1.79E-22  2.13E-22  1.88E-22  1.38E-22
  1.30E-22  5.07E-22  3.86E-22  4.61E-22  2.14E-22  4.69E-22  7.83E-22  9.23E-22
  4.52E-22  1.06E-21  6.98E-22  1.23E-21  1.49E-21  1.18E-21  2.14E-21  1.22E-21
  1.56E-21  1.21E-21  3.49E-21  4.14E-21  4.27E-21  1.74E-21  5.06E-21  4.33E-21
  5.32E-21  5.96E-21  1.25E-20  1.55E-20  6.77E-21  5.71E-21  1.26E-20  1.90E-20
  1.76E-20  2.47E-20  2.89E-20  1.81E-20  4.15E-20  4.07E-20  7.84E-20  3.83E-20
  6.15E-20  3.95E-20  7.71E-20  1.83E-20  1.29E-20  1.92E-19  3.47E-20  1.17E-19
  1.12E-19  1.11E-19  2.54E-19  2.71E-19  1.46E-19  4.70E-19  1.41E-19  1.55E-19
  3.45E-19  1.70E-19  3.69E-19  7.54E-19  2.33E-19  3.87E-19  1.29E-18  2.74E-19
  4.33E-19  1.03E-18  1.37E-18  2.27E-18  1.20E-18  1.92E-18  2.94E-18  9.93E-19
  2.18E-18  2.36E-18  3.92E-18  2.81E-18  7.76E-18  5.64E-18  4.52E-18  4.27E-18
  7.32E-18  6.56E-18  3.87E-17  9.61E-18  3.05E-17  1.46E-17  1.11E-17  6.53E-17
  4.47E-17  5.57E-17  5.25E-17  6.44E-17  6.90E-16  1.23E-16  8.41E-17  1.44E-16
  5.67E-16  6.60E-17  7.92E-17  1.45E-16  2.84E-16  1.44E-16  2.04E-15  2.52E-16
  3.80E-16  7.21E-16  3.06E-16  4.84E-16  1.98E-15  6.15E-16  5.57E-16  6.51E-16
  2.15E-15  3.34E-15  7.86E-16  1.47E-15  1.68E-15  2.58E-15  1.13E-15  1.72E-15
  9.47E-16  1.57E-15  8.13E-16  2.03E-15  3.57E-15  1.02E-14  6.13E-15  3.65E-15
  4.08E-15  4.87E-15  6.96E-15  1.91E-14  8.26E-15  3.51E-14  8.08E-15  7.76E-15
  8.46E-15  1.40E-14  1.11E-14  1.26E-14  3.68E-14  1.13E-14  8.88E-15  2.97E-14
  3.05E-14  2.15E-14  1.46E-14  1.18E-13  2.35E-14  1.65E-13  1.81E-13  7.42E-14
  8.58E-13  4.22E-14  1.01E-13  8.00E-14  4.14E-13  1.81E-13  3.50E-13  2.27E-13
  1.63E-13  1.20E-13  1.16E-12  6.49E-13  5.67E-13  4.17E-13  5.10E-12  1.55E-12
  2.73E-12  3.38E-12  1.30E-12  5.82E-12  3.23E-12  6.95E-12  4.90E-12  4.97E-12
  9.59E-12  1.75E-11  1.14E-11  9.85E-12  1.97E-11  2.36E-11  4.41E-11  2.91E-11
  3.05E-11  5.84E-11  6.28E-11  1.08E-10  4.69E-11  6.73E-11  5.62E-11  3.55E-10
  3.39E-10  1.96E-10  1.89E-10  2.47E-10  5.59E-10  1.55E-10  1.15E-10  4.41E-10
  2.71E-10  4.54E-10  2.26E-10  1.82E-09  3.44E-10  6.54E-10  5.17E-10  6.70E-10
  2.02E-09  6.00E-09  1.06E-08  6.41E-09  4.44E-09  1.64E-08  1.36E-08  6.90E-08
  1.08E-08  3.59E-08  2.89E-08  2.07E-08  7.94E-08  2.11E-07  4.42E-08  1.30E-07
  2.62E-07  9.68E-08  1.61E-07  3.49E-07  2.32E-07  2.24E-07  1.12E-06  9.08E-07
  7.74E-07  5.46E-07  8.76E-07  1.86E-06  6.72E-07  8.14E-07  1.06E-06  1.26E-06
  1.66E-06  2.55E-06  2.44E-06  3.34E-06  5.04E-06  8.07E-06  2.77E-06  5.93E-06
 -8.3800E-01 -7.9751E-01 -7.3183E-01 -6.5224E-01 -6.4569E-01 -6.3435E-01
 -6.0857E-01 -5.9791E-01 -5.8656E-01 -5.8370E-01 -5.5070E-01 -5.4482E-01
 -5.3846E-01 -5.0796E-01 -4.9036E-01 -4.6759E-01 -4.6645E-01 -4.5739E-01
 -4.2860E-01 -4.2464E-01 -4.1335E-01 -4.0907E-01 -4.0723E-01 -4.0312E-01
 -3.7074E-01 -3.6989E-01 -3.6885E-01 -3.5339E-01 -3.4389E-01 -3.3024E-01
 -3.1881E-01 -3.1276E-01 -3.0535E-01 -2.9974E-01 -2.7818E-01 -2.7664E-01
 -2.7658E-01 -2.6396E-01 -2.5774E-01 -2.5495E-01 -2.2266E-01 -2.0423E-01
 -2.0278E-01 -1.8751E-01 -1.8587E-01 -1.8576E-01 -1.3742E-01 -1.3139E-01
 -1.2759E-01 -8.1943E-02 -6.8988E-02 -6.7969E-02  7.8610E-03  1.6531E-02
  5.6045E-02  7.4296E-02  1.0169E-01  1.1246E-01  1.2054E-01  1.3424E-01
  1.4546E-01  1.5843E-01  1.5900E-01  1.6787E-01  1.6903E-01  1.9043E-01
  2.0492E-01  2.0879E-01  2.3457E-01  2.3875E-01  2.4455E-01  2.5805E-01
  2.5951E-01  2.6612E-01  2.7136E-01  2.7479E-01  2.9808E-01  3.1318E-01
  3.1624E-01  3.2224E-01  3.2315E-01  3.2586E-01  3.3260E-01  3.3369E-01
  3.3811E-01  3.4718E-01  3.5611E-01  3.6464E-01  3.6818E-01  3.8003E-01
  3.8703E-01  3.8705E-01  3.8954E-01  3.9802E-01  4.0215E-01  4.0759E-01
  4.1080E-01  4.1502E-01  4.2015E-01  4.2966E-01  4.3179E-01  4.3236E-01
  4.4348E-01  4.5311E-01  4.5364E-01  4.6161E-01  4.6681E-01  4.7301E-01
  4.7699E-01  4.7991E-01  4.8315E-01  4.9189E-01  4.9964E-01  5.0127E-01
  5.1177E-01  5.1820E-01  5.1987E-01  5.2172E-01  5.3029E-01  5.3529E-01
  5.4486E-01  5.4649E-01  5.5614E-01  5.5781E-01  5.5979E-01  5.6735E-01
  5.7479E-01  5.7766E-01  5.7867E-01  5.7994E-01  5.8070E-01  5.8328E-01
  5.8849E-01  5.8903E-01  5.8939E-01  5.9512E-01  5.9861E-01  6.0262E-01
  6.0580E-01  6.0892E-01  6.2408E-01  6.3104E-01  6.3104E-01  6.3687E-01
  6.4342E-01  6.5568E-01  6.5652E-01  6.6213E-01  6.6254E-01  6.6551E-01
  6.7113E-01  6.7191E-01  6.7646E-01  6.8217E-01  6.8218E-01  6.9871E-01
  7.0108E-01  7.0539E-01  7.0728E-01  7.0969E-01  7.1728E-01  7.1763E-01
  7.2203E-01  7.2816E-01  7.3419E-01  7.5100E-01  7.5363E-01  7.5817E-01
  7.5863E-01  7.6716E-01  7.7563E-01  7.7665E-01  7.7963E-01  7.8497E-01
  7.8878E-01  7.9040E-01  8.0634E-01  8.0840E-01  8.1845E-01  8.2798E-01
  8.3227E-01  8.4085E-01  8.4500E-01  8.5845E-01  8.5891E-01  8.7711E-01
  8.7939E-01  8.8968E-01  8.8971E-01  8.9988E-01  9.0395E-01  9.0797E-01
  9.1180E-01  9.1198E-01  9.1213E-01  9.2018E-01  9.2836E-01  9.3149E-01
  9.3750E-01  9.3902E-01  9.4383E-01  9.4384E-01  9.4547E-01  9.4789E-01
  9.4926E-01  9.5077E-01  9.5397E-01  9.5610E-01  9.5763E-01  9.5993E-01
  9.6240E-01  9.6517E-01  9.6722E-01  9.6784E-01  9.7399E-01  9.7489E-01
  9.7518E-01  9.7655E-01  9.7656E-01  9.8049E-01  9.8496E-01  9.8651E-01
  9.9558E-01  9.9611E-01  9.9824E-01  9.9889E-01  1.0011E+00  1.0058E+00
  1.0064E+00  1.0107E+00  1.0138E+00  1.0147E+00  1.0177E+00  1.0200E+00
  1.0263E+00  1.0288E+00  1.0290E+00  1.0347E+00  1.0357E+00  1.0431E+00
  1.0456E+00  1.0524E+00  1.0525E+00  1.0538E+00  1.0549E+00  1.0552E+00
  1.0636E+00  1.0675E+00  1.0692E+00  1.0747E+00  1.0793E+00  1.0833E+00
  1.0914E+00  1.0930E+00  1.0939E+00  1.1002E+00  1.1025E+00  1.1103E+00
  1.1122E+00  1.1132E+00  1.1157E+00  1.1197E+00  1.1246E+00  1.1271E+00
  1.1294E+00  1.1312E+00  1.1325E+00  1.1338E+00  1.1421E+00  1.1455E+00
  1.1521E+00  1.1522E+00  1.1525E+00  1.1609E+00  1.1633E+00  1.1652E+00
  1.1673E+00  1.1737E+00  1.1764E+00  1.1793E+00  1.1804E+00  1.1940E+00
  1.1941E+00  1.1956E+00  1.1967E+00  1.1989E+00  1.2013E+00  1.2075E+00
  1.2095E+00  1.2105E+00  1.2119E+00  1.2155E+00  1.2281E+00  1.2311E+00
  1.2312E+00  1.2315E+00  1.2323E+00  1.2492E+00  1.2497E+00  1.2506E+00
  1.2521E+00  1.2540E+00  1.2546E+00  1.2549E+00  1.2552E+00  1.2554E+00
  1.2556E+00  1.2589E+00  1.2593E+00  1.2601E+00  1.2610E+00  1.2630E+00
  1.2640E+00  1.2640E+00  1.2648E+00  1.2687E+00  1.2696E+00  1.2729E+00
  1.2732E+00  1.2750E+00  1.2799E+00  1.2807E+00  1.2819E+00  1.2852E+00
  1.2856E+00  1.2862E+00  1.2866E+00  1.2909E+00  1.2943E+00  1.2960E+00
  1.3025E+00  1.3029E+00  1.3052E+00  1.3068E+00  1.3086E+00  1.3089E+00
  1.3109E+00  1.3131E+00  1.3137E+00  1.3145E+00  1.3154E+00  1.3194E+00
  1.3218E+00  1.3239E+00  1.3273E+00  1.3273E+00  1.3321E+00  1.3336E+00
  1.3372E+00  1.3400E+00  1.3406E+00  1.3411E+00  1.3461E+00  1.3502E+00
  1.3518E+00  1.3540E+00  1.3555E+00  1.3569E+00  1.3599E+00  1.3633E+00
  1.3633E+00  1.3642E+00  1.3666E+00  1.3781E+00  1.3792E+00  1.3803E+00
  1.3820E+00  1.3828E+00  1.3833E+00  1.3874E+00  1.3883E+00  1.3885E+00
  1.3936E+00  1.3965E+00  1.4008E+00  1.4024E+00  1.4042E+00  1.4067E+00
  1.4101E+00  1.4112E+00  1.4117E+00  1.4127E+00  1.4154E+00  1.4156E+00
  1.4188E+00  1.4207E+00  1.4234E+00  1.4269E+00  1.4327E+00  1.4353E+00
  1.4377E+00  1.4401E+00  1.4448E+00  1.4464E+00  1.4506E+00  1.4512E+00
  1.4527E+00  1.4534E+00  1.4545E+00  1.4610E+00  1.4621E+00  1.4670E+00
  1.4678E+00  1.4701E+00  1.4733E+00  1.4768E+00  1.4786E+00  1.4818E+00
  1.4820E+00  1.4821E+00  1.4838E+00  1.4882E+00  1.4965E+00  1.5009E+00
  1.5023E+00  1.5036E+00  1.5038E+00  1.5084E+00  1.5119E+00  1.5120E+00
  1.5197E+00  1.5228E+00  1.5228E+00  1.5249E+00  1.5256E+00  1.5276E+00
  1.5308E+00  1.5309E+00  1.5340E+00  1.5389E+00  1.5413E+00  1.5414E+00
  1.5432E+00  1.5479E+00  1.5487E+00  1.5527E+00  1.5554E+00  1.5572E+00
  1.5585E+00  1.5635E+00  1.5660E+00  1.5676E+00  1.5685E+00  1.5734E+00
  1.5743E+00  1.5746E+00  1.5821E+00  1.5844E+00  1.5906E+00  1.5962E+00
  1.5981E+00  1.5996E+00  1.6004E+00  1.6005E+00  1.6031E+00  1.6045E+00
  1.6052E+00  1.6065E+00  1.6071E+00  1.6102E+00  1.6110E+00  1.6145E+00
  1.6214E+00  1.6226E+00  1.6230E+00  1.6250E+00  1.6266E+00  1.6273E+00
  1.6397E+00  1.6418E+00  1.6461E+00  1.6471E+00  1.6515E+00  1.6554E+00
  1.6577E+00  1.6598E+00  1.6626E+00  1.6715E+00  1.6728E+00  1.6779E+00
  1.6809E+00  1.6843E+00  1.6844E+00  1.6847E+00  1.6864E+00  1.6889E+00
  1.6914E+00  1.6934E+00  1.6961E+00  1.6965E+00  1.6970E+00  1.6984E+00
  1.7063E+00  1.7129E+00  1.7131E+00  1.7152E+00  1.7157E+00  1.7180E+00
  1.7207E+00  1.7217E+00  1.7272E+00  1.7275E+00  1.7329E+00  1.7349E+00
  1.7386E+00  1.7417E+00  1.7465E+00  1.7474E+00  1.7501E+00  1.7508E+00
  1.7513E+00  1.7593E+00  1.7620E+00  1.7627E+00  1.7645E+00  1.7650E+00
  1.7718E+00  1.7736E+00  1.7738E+00  1.7806E+00  1.7820E+00  1.7823E+00
  1.7826E+00  1.7901E+00  1.7929E+00  1.7939E+00  1.7961E+00  1.7996E+00
  1.8026E+00  1.8039E+00  1.8046E+00  1.8056E+00  1.8077E+00  1.8110E+00
  1.8117E+00  1.8123E+00  1.8138E+00  1.8162E+00  1.8177E+00  1.8194E+00
  1.8207E+00  1.8238E+00  1.8277E+00  1.8291E+00  1.8302E+00  1.8359E+00
  1.8360E+00  1.8384E+00  1.8387E+00  1.8393E+00  1.8440E+00  1.8468E+00
  1.8470E+00  1.8498E+00  1.8499E+00  1.8509E+00  1.8547E+00  1.8602E+00
  1.8614E+00  1.8648E+00  1.8664E+00  1.8681E+00  1.8750E+00  1.8751E+00
  1.8815E+00  1.8821E+00  1.8859E+00  1.8879E+00  1.8883E+00  1.8886E+00
  1.8896E+00  1.8903E+00  1.8919E+00  1.8921E+00  1.8941E+00  1.8944E+00
  1.8982E+00  1.8995E+00  1.8997E+00  1.9038E+00  1.9041E+00  1.9057E+00
  1.9081E+00  1.9082E+00  1.9091E+00  1.9093E+00  1.9161E+00  1.9176E+00
  1.9193E+00  1.9197E+00  1.9212E+00  1.9215E+00  1.9236E+00  1.9245E+00
  1.9251E+00  1.9276E+00  1.9288E+00  1.9325E+00  1.9331E+00  1.9334E+00
  1.9336E+00  1.9401E+00  1.9404E+00  1.9416E+00  1.9421E+00  1.9440E+00
  1.9454E+00  1.9473E+00  1.9487E+00  1.9493E+00  1.9516E+00  1.9530E+00
  1.9604E+00  1.9625E+00  1.9639E+00  1.9656E+00  1.9712E+00  1.9751E+00
  1.9763E+00  1.9776E+00  1.9777E+00  1.9791E+00  1.9804E+00  1.9804E+00
  1.9848E+00  1.9855E+00  1.9898E+00  1.9901E+00  1.9936E+00  1.9965E+00
  1.9972E+00  2.0013E+00  2.0029E+00  2.0047E+00  2.0051E+00  2.0122E+00
  2.0141E+00  2.0179E+00  2.0186E+00  2.0225E+00  2.0226E+00  2.0227E+00
  2.0278E+00  2.0289E+00  2.0293E+00  2.0320E+00  2.0325E+00  2.0378E+00
  2.0407E+00  2.0420E+00  2.0438E+00  2.0448E+00  2.0465E+00  2.0498E+00
  2.0502E+00  2.0551E+00  2.0593E+00  2.0596E+00  2.0606E+00  2.0615E+00
  2.0616E+00  2.0637E+00  2.0674E+00  2.0735E+00  2.0766E+00  2.0791E+00
  2.0803E+00  2.0824E+00  2.0834E+00  2.0843E+00  2.0858E+00  2.0910E+00
  2.0911E+00  2.0970E+00  2.0994E+00  2.0999E+00  2.1044E+00  2.1052E+00
  2.1060E+00  2.1077E+00  2.1108E+00  2.1113E+00  2.1131E+00  2.1145E+00
  2.1156E+00  2.1156E+00  2.1166E+00  2.1173E+00  2.1192E+00  2.1192E+00
  2.1198E+00  2.1211E+00  2.1217E+00  2.1217E+00  2.1230E+00  2.1251E+00
  2.1254E+00  2.1264E+00  2.1268E+00  2.1295E+00  2.1299E+00  2.1305E+00
  2.1334E+00  2.1335E+00  2.1339E+00  2.1348E+00  2.1363E+00  2.1438E+00
  2.1444E+00  2.1449E+00  2.1455E+00  2.1489E+00  2.1489E+00  2.1513E+00
  2.1514E+00  2.1566E+00  2.1576E+00  2.1588E+00  2.1599E+00  2.1600E+00
  2.1623E+00  2.1629E+00  2.1659E+00  2.1677E+00  2.1695E+00  2.1711E+00
  2.1722E+00  2.1727E+00  2.1769E+00  2.1780E+00  2.1819E+00  2.1824E+00
  2.1849E+00  2.1862E+00  2.1865E+00  2.1866E+00  2.1867E+00  2.1871E+00
  2.1881E+00  2.1892E+00  2.1893E+00  2.1906E+00  2.1910E+00  2.1922E+00
  2.1925E+00  2.1927E+00  2.1928E+00  2.1948E+00  2.1959E+00  2.1983E+00
  2.2001E+00  2.2005E+00  2.2019E+00  2.2027E+00  2.2028E+00  2.2032E+00
  2.2048E+00  2.2059E+00  2.2059E+00  2.2070E+00  2.2075E+00  2.2097E+00
  2.2099E+00  2.2111E+00  2.2129E+00  2.2152E+00  2.2155E+00  2.2173E+00
  2.2174E+00  2.2185E+00  2.2188E+00  2.2200E+00  2.2217E+00  2.2253E+00
  2.2263E+00  2.2279E+00  2.2280E+00  2.2303E+00  2.2317E+00  2.2321E+00
  2.2326E+00  2.2344E+00  2.2371E+00  2.2386E+00  2.2412E+00  2.2426E+00
  2.2435E+00  2.2449E+00  2.2472E+00  2.2491E+00  2.2515E+00  2.2515E+00
  2.2529E+00  2.2542E+00  2.2554E+00  2.2579E+00  2.2589E+00  2.2595E+00
  2.2596E+00  2.2600E+00  2.2609E+00  2.2637E+00  2.2648E+00  2.2652E+00
  2.2654E+00  2.2669E+00  2.2721E+00  2.2731E+00  2.2734E+00  2.2773E+00
  2.2792E+00  2.2795E+00  2.2822E+00  2.2845E+00  2.2859E+00  2.2897E+00
  2.2906E+00  2.2917E+00  2.2954E+00  2.2963E+00  2.2967E+00  2.2989E+00
  2.3004E+00  2.3006E+00  2.3015E+00  2.3038E+00  2.3054E+00  2.3089E+00
  2.3157E+00  2.3161E+00  2.3162E+00  2.3195E+00  2.3203E+00  2.3221E+00
  2.3241E+00  2.3245E+00  2.3265E+00  2.3266E+00  2.3267E+00  2.3297E+00
  2.3300E+00  2.3311E+00  2.3352E+00  2.3372E+00  2.3378E+00  2.3387E+00
  2.3398E+00  2.3418E+00  2.3437E+00  2.3478E+00  2.3478E+00  2.3482E+00
  2.3484E+00  2.3489E+00  2.3518E+00  2.3523E+00  2.3532E+00  2.3539E+00
  2.3578E+00  2.3585E+00  2.3601E+00  2.3605E+00  2.3654E+00  2.3697E+00
  2.3709E+00  2.3752E+00  2.3760E+00  2.3771E+00  2.3816E+00  2.3817E+00
  2.3821E+00  2.3880E+00  2.3904E+00  2.3907E+00  2.3922E+00  2.3930E+00
  2.3967E+00  2.3970E+00  2.3981E+00  2.3984E+00  2.3988E+00  2.4012E+00
  2.4036E+00  2.4046E+00  2.4087E+00  2.4104E+00  2.4116E+00  2.4129E+00
  2.4136E+00  2.4167E+00  2.4196E+00  2.4233E+00  2.4234E+00  2.4235E+00
  2.4241E+00  2.4283E+00  2.4290E+00  2.4366E+00  2.4377E+00  2.4381E+00
  2.4406E+00  2.4409E+00  2.4413E+00  2.4427E+00  2.4428E+00  2.4436E+00
  2.4473E+00  2.4485E+00  2.4499E+00  2.4502E+00  2.4506E+00  2.4515E+00
  2.4556E+00  2.4587E+00  2.4621E+00  2.4629E+00  2.4634E+00  2.4657E+00
  2.4661E+00  2.4671E+00  2.4681E+00  2.4691E+00  2.4691E+00  2.4748E+00
  2.4778E+00  2.4802E+00  2.4805E+00  2.4838E+00  2.4856E+00  2.4872E+00
  2.4881E+00  2.4894E+00  2.4899E+00  2.4922E+00  2.4935E+00  2.4942E+00
  2.4966E+00  2.4967E+00  2.4974E+00  2.4988E+00  2.4996E+00  2.5032E+00
  2.5052E+00  2.5096E+00  2.5118E+00  2.5129E+00  2.5223E+00  2.5232E+00
  2.5249E+00  2.5253E+00  2.5295E+00  2.5321E+00  2.5325E+00  2.5344E+00
  2.5345E+00  2.5374E+00  2.5376E+00  2.5384E+00  2.5386E+00  2.5393E+00
  2.5453E+00  2.5459E+00  2.5484E+00  2.5494E+00  2.5542E+00  2.5571E+00
  2.5571E+00  2.5606E+00  2.5607E+00  2.5609E+00  2.5623E+00  2.5629E+00
  2.5659E+00  2.5662E+00  2.5676E+00  2.5714E+00  2.5737E+00  2.5743E+00
  2.5766E+00  2.5772E+00  2.5821E+00  2.5844E+00  2.5871E+00  2.5886E+00
  2.5896E+00  2.5943E+00  2.5946E+00  2.5967E+00  2.5968E+00  2.5993E+00
  2.5994E+00  2.6058E+00  2.6074E+00  2.6082E+00  2.6095E+00  2.6110E+00
  2.6124E+00  2.6127E+00  2.6130E+00  2.6248E+00  2.6270E+00  2.6270E+00
  2.6288E+00  2.6309E+00  2.6316E+00  2.6325E+00  2.6326E+00  2.6352E+00
  2.6367E+00  2.6371E+00  2.6387E+00  2.6391E+00  2.6397E+00  2.6407E+00
  2.6465E+00  2.6541E+00  2.6559E+00  2.6559E+00  2.6575E+00  2.6578E+00
  2.6586E+00  2.6592E+00  2.6617E+00  2.6645E+00  2.6670E+00  2.6676E+00
  2.6681E+00  2.6706E+00  2.6785E+00  2.6809E+00  2.6810E+00  2.6826E+00
  2.6849E+00  2.6857E+00  2.6876E+00  2.6884E+00  2.6974E+00  2.6988E+00
  2.6989E+00  2.7000E+00  2.7009E+00  2.7072E+00  2.7111E+00  2.7121E+00
  2.7123E+00  2.7134E+00  2.7143E+00  2.7179E+00  2.7206E+00  2.7212E+00
  2.7220E+00  2.7223E+00  2.7283E+00  2.7298E+00  2.7360E+00  2.7379E+00
  2.7392E+00  2.7410E+00  2.7411E+00  2.7415E+00  2.7419E+00  2.7445E+00
  2.7447E+00  2.7466E+00  2.7487E+00  2.7505E+00  2.7524E+00  2.7547E+00
  2.7559E+00  2.7568E+00  2.7594E+00  2.7630E+00  2.7630E+00  2.7632E+00
  2.7639E+00  2.7646E+00  2.7651E+00  2.7682E+00  2.7704E+00  2.7765E+00
  2.7792E+00  2.7822E+00  2.7841E+00  2.7843E+00  2.7883E+00  2.7899E+00
  2.7915E+00  2.7967E+00  2.7978E+00  2.7985E+00  2.7991E+00  2.8052E+00
  2.8057E+00  2.8072E+00  2.8100E+00  2.8109E+00  2.8118E+00  2.8123E+00
  2.8134E+00  2.8136E+00  2.8137E+00  2.8154E+00  2.8198E+00  2.8222E+00
  2.8258E+00  2.8278E+00  2.8358E+00  2.8373E+00  2.8380E+00  2.8414E+00
  2.8430E+00  2.8444E+00  2.8477E+00  2.8478E+00  2.8519E+00  2.8541E+00
  2.8543E+00  2.8590E+00  2.8604E+00  2.8614E+00  2.8621E+00  2.8622E+00
  2.8641E+00  2.8663E+00  2.8702E+00  2.8721E+00  2.8733E+00  2.8742E+00
  2.8746E+00  2.8762E+00  2.8770E+00  2.8803E+00  2.8808E+00  2.8826E+00
  2.8874E+00  2.8891E+00  2.8918E+00  2.8918E+00  2.8919E+00  2.8922E+00
  2.8965E+00  2.9009E+00  2.9040E+00  2.9049E+00  2.9071E+00  2.9073E+00
  2.9102E+00  2.9109E+00  2.9121E+00  2.9147E+00  2.9177E+00  2.9182E+00
  2.9193E+00  2.9214E+00  2.9216E+00  2.9226E+00  2.9244E+00  2.9263E+00
  2.9302E+00  2.9332E+00  2.9334E+00  2.9346E+00  2.9359E+00  2.9380E+00
  2.9383E+00  2.9419E+00  2.9429E+00  2.9462E+00  2.9493E+00  2.9509E+00
  2.9545E+00  2.9564E+00  2.9586E+00  2.9601E+00  2.9604E+00  2.9644E+00
  2.9684E+00  2.9684E+00  2.9686E+00  2.9692E+00  2.9695E+00  2.9742E+00
  2.9758E+00  2.9774E+00  2.9821E+00  2.9854E+00  2.9860E+00  2.9861E+00
  2.9895E+00  2.9900E+00  2.9902E+00  2.9909E+00  2.9944E+00  2.9948E+00
  2.9963E+00  2.9969E+00  3.0000E+00  3.0008E+00  3.0026E+00  3.0048E+00
  3.0064E+00  3.0111E+00  3.0119E+00  3.0138E+00  3.0177E+00  3.0191E+00
  3.0196E+00  3.0200E+00  3.0203E+00  3.0235E+00  3.0291E+00  3.0291E+00
  3.0301E+00  3.0306E+00  3.0324E+00  3.0330E+00  3.0351E+00  3.0373E+00
  3.0374E+00  3.0418E+00  3.0429E+00  3.0468E+00  3.0474E+00  3.0478E+00
  3.0478E+00  3.0479E+00  3.0502E+00  3.0505E+00  3.0518E+00  3.0525E+00
  3.0528E+00  3.0535E+00  3.0538E+00  3.0544E+00  3.0567E+00  3.0570E+00
  3.0576E+00  3.0598E+00  3.0617E+00  3.0626E+00  3.0640E+00  3.0646E+00
  3.0668E+00  3.0671E+00  3.0689E+00  3.0693E+00  3.0719E+00  3.0728E+00
  3.0737E+00  3.0776E+00  3.0782E+00  3.0800E+00  3.0818E+00  3.0821E+00
  3.0823E+00  3.0842E+00  3.0854E+00  3.0857E+00  3.0890E+00  3.0893E+00
  3.0908E+00  3.0913E+00  3.0928E+00  3.0939E+00  3.0940E+00  3.0942E+00
  3.0954E+00  3.0966E+00  3.0972E+00  3.0983E+00  3.1014E+00  3.1025E+00
  3.1044E+00  3.1050E+00  3.1070E+00  3.1072E+00  3.1095E+00  3.1109E+00
  3.1125E+00  3.1130E+00  3.1159E+00  3.1194E+00  3.1198E+00  3.1200E+00
  3.1211E+00  3.1223E+00  3.1255E+00  3.1259E+00  3.1277E+00  3.1319E+00
  3.1321E+00  3.1325E+00  3.1335E+00  3.1348E+00  3.1360E+00  3.1384E+00
  3.1386E+00  3.1390E+00  3.1397E+00  3.1427E+00  3.1428E+00  3.1433E+00
  3.1465E+00  3.1476E+00  3.1505E+00  3.1521E+00  3.1527E+00  3.1566E+00
  3.1577E+00  3.1598E+00  3.1627E+00  3.1648E+00  3.1725E+00  3.1736E+00
  3.1737E+00  3.1745E+00  3.1752E+00  3.1763E+00  3.1765E+00  3.1767E+00
  3.1834E+00  3.1841E+00  3.1861E+00  3.1877E+00  3.1888E+00  3.1892E+00
  3.1896E+00  3.1902E+00  3.1908E+00  3.1949E+00  3.1955E+00  3.1988E+00
  3.1992E+00  3.2029E+00  3.2030E+00  3.2030E+00  3.2041E+00  3.2068E+00
  3.2086E+00  3.2098E+00  3.2107E+00  3.2120E+00  3.2201E+00  3.2207E+00
  3.2229E+00  3.2232E+00  3.2269E+00  3.2294E+00  3.2308E+00  3.2309E+00
  3.2310E+00  3.2320E+00  3.2363E+00  3.2363E+00  3.2373E+00  3.2388E+00
  3.2402E+00  3.2404E+00  3.2405E+00  3.2408E+00  3.2413E+00  3.2435E+00
  3.2437E+00  3.2441E+00  3.2441E+00  3.2444E+00  3.2450E+00  3.2489E+00
  3.2492E+00  3.2493E+00  3.2500E+00  3.2535E+00  3.2540E+00  3.2553E+00
  3.2567E+00  3.2596E+00  3.2611E+00  3.2648E+00  3.2650E+00  3.2651E+00
  3.2675E+00  3.2678E+00  3.2687E+00  3.2691E+00  3.2729E+00  3.2760E+00
  3.2765E+00  3.2773E+00  3.2778E+00  3.2783E+00  3.2795E+00  3.2821E+00
  3.2828E+00  3.2858E+00  3.2873E+00  3.2879E+00  3.2880E+00  3.2926E+00
  3.2930E+00  3.2931E+00  3.2941E+00  3.2943E+00  3.2964E+00  3.2985E+00
  3.2996E+00  3.3020E+00  3.3035E+00  3.3042E+00  3.3052E+00  3.3073E+00
  3.3097E+00  3.3104E+00  3.3126E+00  3.3130E+00  3.3160E+00  3.3166E+00
  3.3170E+00  3.3218E+00  3.3225E+00  3.3228E+00  3.3238E+00  3.3255E+00
  3.3302E+00  3.3307E+00  3.3326E+00  3.3350E+00  3.3352E+00  3.3410E+00
  3.3414E+00  3.3417E+00  3.3436E+00  3.3437E+00  3.3438E+00  3.3486E+00
  3.3491E+00  3.3514E+00  3.3517E+00  3.3518E+00  3.3563E+00  3.3564E+00
  3.3594E+00  3.3617E+00  3.3623E+00  3.3645E+00  3.3661E+00  3.3707E+00
  3.3717E+00  3.3723E+00  3.3736E+00  3.3748E+00  3.3752E+00  3.3779E+00
  3.3780E+00  3.3782E+00  3.3814E+00  3.3830E+00  3.3837E+00  3.3865E+00
  3.3869E+00  3.3900E+00  3.3912E+00  3.3913E+00  3.3933E+00  3.3966E+00
  3.3976E+00  3.3979E+00  3.3983E+00  3.3995E+00  3.4033E+00  3.4047E+00
  3.4053E+00  3.4068E+00  3.4071E+00  3.4094E+00  3.4111E+00  3.4119E+00
  3.4126E+00  3.4160E+00  3.4187E+00  3.4194E+00  3.4207E+00  3.4219E+00
  3.4234E+00  3.4241E+00  3.4261E+00  3.4280E+00  3.4286E+00  3.4289E+00
  3.4316E+00  3.4326E+00  3.4336E+00  3.4380E+00  3.4418E+00  3.4419E+00
  3.4455E+00  3.4473E+00  3.4480E+00  3.4481E+00  3.4511E+00  3.4529E+00
  3.4530E+00  3.4534E+00  3.4544E+00  3.4588E+00  3.4594E+00  3.4608E+00
  3.4623E+00  3.4640E+00  3.4643E+00  3.4648E+00  3.4667E+00  3.4676E+00
  3.4679E+00  3.4690E+00  3.4709E+00  3.4736E+00  3.4746E+00  3.4769E+00
  3.4783E+00  3.4787E+00  3.4788E+00  3.4807E+00  3.4821E+00  3.4831E+00
  3.4837E+00  3.4841E+00  3.4863E+00  3.4867E+00  3.4887E+00  3.4899E+00
  3.4928E+00  3.4939E+00  3.4948E+00  3.4959E+00  3.4970E+00  3.4979E+00
  3.4996E+00  3.5022E+00  3.5047E+00  3.5059E+00  3.5060E+00  3.5097E+00
  3.5101E+00  3.5123E+00  3.5182E+00  3.5193E+00  3.5207E+00  3.5234E+00
  3.5247E+00  3.5248E+00  3.5259E+00  3.5260E+00  3.5262E+00  3.5279E+00
  3.5286E+00  3.5313E+00  3.5324E+00  3.5342E+00  3.5358E+00  3.5359E+00
  3.5360E+00  3.5424E+00  3.5441E+00  3.5452E+00  3.5477E+00  3.5501E+00
  3.5505E+00  3.5510E+00  3.5513E+00  3.5516E+00  3.5517E+00  3.5521E+00
  3.5526E+00  3.5532E+00  3.5534E+00  3.5555E+00  3.5565E+00  3.5570E+00
  3.5572E+00  3.5578E+00  3.5579E+00  3.5600E+00  3.5605E+00  3.5610E+00
  3.5613E+00  3.5630E+00  3.5640E+00  3.5651E+00  3.5663E+00  3.5686E+00
  3.5688E+00  3.5690E+00  3.5692E+00  3.5711E+00  3.5717E+00  3.5717E+00
  3.5719E+00  3.5733E+00  3.5776E+00  3.5789E+00  3.5792E+00  3.5794E+00
  3.5798E+00  3.5821E+00  3.5821E+00  3.5823E+00  3.5848E+00  3.5864E+00
  3.5879E+00  3.5879E+00  3.5885E+00  3.5895E+00  3.5933E+00  3.5951E+00
  3.5954E+00  3.5971E+00  3.5979E+00  3.5983E+00  3.5989E+00  3.6031E+00
  3.6064E+00  3.6085E+00  3.6091E+00  3.6108E+00  3.6118E+00  3.6121E+00
  3.6151E+00  3.6162E+00  3.6178E+00  3.6179E+00  3.6198E+00  3.6202E+00
  3.6216E+00  3.6223E+00  3.6227E+00  3.6249E+00  3.6279E+00  3.6284E+00
  3.6304E+00  3.6308E+00  3.6320E+00  3.6331E+00  3.6331E+00  3.6336E+00
  3.6346E+00  3.6376E+00  3.6394E+00  3.6405E+00  3.6414E+00  3.6449E+00
  3.6451E+00  3.6459E+00  3.6462E+00  3.6471E+00  3.6472E+00  3.6485E+00
  3.6488E+00  3.6489E+00  3.6508E+00  3.6517E+00  3.6538E+00  3.6552E+00
  3.6569E+00  3.6591E+00  3.6599E+00  3.6617E+00  3.6636E+00  3.6654E+00
  3.6676E+00  3.6679E+00  3.6692E+00  3.6742E+00  3.6748E+00  3.6755E+00
  3.6765E+00  3.6770E+00  3.6774E+00  3.6805E+00  3.6819E+00  3.6827E+00
  3.6868E+00  3.6869E+00  3.6930E+00  3.6938E+00  3.6955E+00  3.6957E+00
  3.6961E+00  3.6969E+00  3.6998E+00  3.7012E+00  3.7021E+00  3.7043E+00
  3.7058E+00  3.7087E+00  3.7098E+00  3.7100E+00  3.7104E+00  3.7117E+00
  3.7131E+00  3.7140E+00  3.7157E+00  3.7178E+00  3.7199E+00  3.7210E+00
  prteigrs : nnsclo,ikpt=  100    1 max resid (incl. the buffer)=  8.06511E-06
 prteigrs : prtvol=0 or 1, do not print more k-points.
 
  prteigrs : nnsclo,ikpt=  100    2 max resid (incl. the buffer)=  8.06905E-06
  prteigrs : nnsclo,ikpt=  100    3 max resid (incl. the buffer)=  1.06495E-05
  prteigrs : nnsclo,ikpt=  100    4 max resid (incl. the buffer)=  1.33484E-05
  prteigrs : nnsclo,ikpt=  100    5 max resid (incl. the buffer)=  6.89030E-06
  prteigrs : nnsclo,ikpt=  100    6 max resid (incl. the buffer)=  1.25971E-05
  prteigrs : nnsclo,ikpt=  100    7 max resid (incl. the buffer)=  5.53315E-06
  prteigrs : nnsclo,ikpt=  100    8 max resid (incl. the buffer)=  8.82834E-06
  prteigrs : nnsclo,ikpt=  100    9 max resid (incl. the buffer)=  7.67628E-06
  prteigrs : nnsclo,ikpt=  100   10 max resid (incl. the buffer)=  1.09792E-05
  prteigrs : nnsclo,ikpt=  100   11 max resid (incl. the buffer)=  4.75456E-06
  prteigrs : nnsclo,ikpt=  100   12 max resid (incl. the buffer)=  9.85508E-06
  prteigrs : nnsclo,ikpt=  100   13 max resid (incl. the buffer)=  9.63817E-06
  prteigrs : nnsclo,ikpt=  100   14 max resid (incl. the buffer)=  1.12691E-05
  prteigrs : nnsclo,ikpt=  100   15 max resid (incl. the buffer)=  9.62315E-06
  prteigrs : nnsclo,ikpt=  100   16 max resid (incl. the buffer)=  9.90435E-06
 
 
Result for kinetic energy density :
 
--------------------------------------------------------------------------------
 Total kinetic energy density [Ha/Bohr^3]
      Maximum=    3.1117E+00  at reduced coord.    0.9259    0.5926    0.5722
      Minimum=    6.0995E-08  at reduced coord.    0.7407    0.5926    0.0093
   Integrated=    1.0502E+02
--------------------------------------------------------------------------------

--- !ResultsGS
iteration_state: {dtset: 2, }
comment   : Summary of ground state results
lattice_vectors:
- [  7.9710704,   0.0000000,   0.0000000, ]
- [  0.0000000,   8.2924090,   0.0000000, ]
- [  0.0000000,   0.0000000,  81.2582237, ]
lattice_lengths: [   7.97107,    8.29241,   81.25822, ]
lattice_angles: [ 90.000,  90.000,  90.000, ] # degrees, (23, 13, 12)
lattice_volume:   5.3711178E+03
convergence: {deltae:  0.000E+00, res2:  0.000E+00, residm:  7.494E-19, diffor:  0.000E+00, }
etotal    :  -1.02676700E+02
entropy   :   0.00000000E+00
fermie    :  -6.79694267E-02
cartesian_stress_tensor: null
pressure_GPa: null
xred      :
- [  4.3325E-01,   4.1175E-01,   4.2768E-01,  C]
- [  5.6675E-01,   5.8825E-01,   5.7232E-01,  C]
- [  9.3325E-01,   5.8825E-01,   5.7232E-01,  C]
- [  6.6754E-02,   4.1175E-01,   4.2768E-01,  C]
- [  6.6754E-02,   9.1175E-01,   5.7232E-01,  C]
- [  9.3325E-01,   8.8249E-02,   4.2768E-01,  C]
- [  5.6675E-01,   8.8249E-02,   4.2768E-01,  C]
- [  4.3325E-01,   9.1175E-01,   5.7232E-01,  C]
- [  4.3748E-01,   4.1687E-01,   4.8540E-01,  C]
- [  5.6252E-01,   5.8313E-01,   5.1460E-01,  C]
- [  9.3748E-01,   5.8313E-01,   5.1460E-01,  C]
- [  6.2517E-02,   4.1687E-01,   4.8540E-01,  C]
- [  6.2517E-02,   9.1687E-01,   5.1460E-01,  C]
- [  9.3748E-01,   8.3130E-02,   4.8540E-01,  C]
- [  5.6252E-01,   8.3130E-02,   4.8540E-01,  C]
- [  4.3748E-01,   9.1687E-01,   5.1460E-01,  C]
- [  4.3715E-01,   4.1585E-01,   5.4388E-01,  C]
- [  5.6285E-01,   5.8415E-01,   4.5612E-01,  C]
- [  9.3715E-01,   5.8415E-01,   4.5612E-01,  C]
- [  6.2849E-02,   4.1585E-01,   5.4388E-01,  C]
- [  6.2849E-02,   9.1585E-01,   4.5612E-01,  C]
- [  9.3715E-01,   8.4148E-02,   5.4388E-01,  C]
- [  5.6285E-01,   8.4148E-02,   5.4388E-01,  C]
- [  4.3715E-01,   9.1585E-01,   4.5612E-01,  C]
- [  1.3071E-02,   9.7482E-01,   4.0635E-01,  H]
- [  9.8693E-01,   2.5179E-02,   5.9365E-01,  H]
- [  5.1307E-01,   2.5179E-02,   5.9365E-01,  H]
- [  4.8693E-01,   9.7482E-01,   4.0635E-01,  H]
- [  4.8693E-01,   4.7482E-01,   5.9365E-01,  H]
- [  5.1307E-01,   5.2518E-01,   4.0635E-01,  H]
- [  9.8693E-01,   5.2518E-01,   4.0635E-01,  H]
- [  1.3071E-02,   4.7482E-01,   5.9365E-01,  H]
cartesian_forces: null
force_length_stats: {min: null, max: null, mean: null, }
...

 Integrated electronic density in atomic spheres:
 ------------------------------------------------
 Atom  Sphere_radius  Integrated_density
    1        2.00000          4.63304179
    2        2.00000          4.63304179
    3        2.00000          4.63304179
    4        2.00000          4.63304179
    5        2.00000          4.63304179
    6        2.00000          4.63304179
    7        2.00000          4.63304179
    8        2.00000          4.63304179
    9        2.00000          4.58168636
   10        2.00000          4.58168636
   11        2.00000          4.58168636
   12        2.00000          4.58168636
   13        2.00000          4.58168636
   14        2.00000          4.58168636
   15        2.00000          4.58168636
   16        2.00000          4.58168636
   17        2.00000          4.60272193
   18        2.00000          4.60272193
   19        2.00000          4.60272193
   20        2.00000          4.60272193
   21        2.00000          4.60272193
   22        2.00000          4.60272193
   23        2.00000          4.60272193
   24        2.00000          4.60272193
   25        2.00000          2.11896371
   26        2.00000          2.11896371
   27        2.00000          2.11896371
   28        2.00000          2.11896371
   29        2.00000          2.11896371
   30        2.00000          2.11896371
   31        2.00000          2.11896371
   32        2.00000          2.11896371
================================================================================
 
 ----iterations are completed or convergence reached----
 
 Mean square residual over all n,k,spin=   94.411E-23; max=  74.944E-20
 reduced coordinates (array xred) for   32 atoms
       0.433245817338      0.411750707731      0.427679325550
       0.566754182661      0.588249292269      0.572320674450
       0.933245817338      0.588249292269      0.572320674450
       0.066754182661      0.411750707731      0.427679325550
       0.066754182661      0.911750707731      0.572320674450
       0.933245817338      0.088249292269      0.427679325550
       0.566754182661      0.088249292269      0.427679325550
       0.433245817338      0.911750707731      0.572320674450
       0.437483483350      0.416869867630      0.485404133890
       0.562516516649      0.583130132371      0.514595866110
       0.937483483350      0.583130132371      0.514595866110
       0.062516516649      0.416869867630      0.485404133890
       0.062516516649      0.916869867630      0.514595866110
       0.937483483350      0.083130132371      0.485404133890
       0.562516516649      0.083130132371      0.485404133890
       0.437483483350      0.916869867630      0.514595866110
       0.437150755200      0.415851863761      0.543875630260
       0.562849244800      0.584148136240      0.456124369740
       0.937150755200      0.584148136240      0.456124369740
       0.062849244800      0.415851863761      0.543875630260
       0.062849244800      0.915851863761      0.456124369740
       0.937150755200      0.084148136240      0.543875630260
       0.562849244800      0.084148136240      0.543875630260
       0.437150755200      0.915851863761      0.456124369740
       0.013071055019      0.974821144900      0.406354089520
       0.986928944980      0.025178855100      0.593645910480
       0.513071055020      0.025178855100      0.593645910480
       0.486928944980      0.974821144900      0.406354089520
       0.486928944980      0.474821144900      0.593645910480
       0.513071055020      0.525178855100      0.406354089520
       0.986928944980      0.525178855100      0.406354089520
       0.013071055019      0.474821144900      0.593645910480
 
 cartesian coordinates (angstrom) at end:
    1      1.82747797761808     1.80682545117855    18.39021099863129
    2      2.39063078300115     2.58132839349602    24.60978900132497
    3      3.93653235792874     2.58132839349602    24.60978900132497
    4      0.28157640269048     1.80682545117855    18.39021099863129
    5      0.28157640269048     4.00090237351474    24.60978900132497
    6      3.93653235792874     0.38725147115983    18.39021099863129
    7      2.39063078300115     0.38725147115983    18.39021099863129
    8      1.82747797761808     4.00090237351474    24.60978900132497
    9      1.84535291374577     1.82928911236755    20.87237775724877
   10      2.37275584687345     2.55886473230702    22.12762224270748
   11      3.95440729405644     2.55886473230702    22.12762224270748
   12      0.26370146656278     1.82928911236755    20.87237775724877
   13      0.26370146656278     4.02336603470374    22.12762224270748
   14      3.95440729405644     0.36478780997083    20.87237775724877
   15      2.37275584687345     0.36478780997083    20.87237775724877
   16      1.84535291374577     4.02336603470374    22.12762224270748
   17      1.84394943022030     1.82482195477591    23.38665210115620
   18      2.37415933039893     2.56333188989866    19.61334789880005
   19      3.95300381053096     2.56333188989866    19.61334789880005
   20      0.26510495008826     1.82482195477591    23.38665210115620
   21      0.26510495008826     4.01889887711210    19.61334789880005
   22      3.95300381053096     0.36925496756247    23.38665210115620
   23      2.37415933039893     0.36925496756247    23.38665210115620
   24      1.84394943022030     4.01889887711210    19.61334789880005
   25      0.05513513168832     4.27766515486086    17.47322584934222
   26      4.16297362893090     0.11048868981371    25.52677415061404
   27      2.16418951199898     0.11048868981371    25.52677415061404
   28      2.05391924862024     4.27766515486086    17.47322584934222
   29      2.05391924862024     2.08358823252468    25.52677415061404
   30      2.16418951199898     2.30456561214990    17.47322584934222
   31      4.16297362893090     2.30456561214990    17.47322584934222
   32      0.05513513168832     2.08358823252468    25.52677415061404
 length scales=  7.971070356300  8.292408995400 81.258223714000 bohr
              =  4.218108760621  4.388153844672 42.999999999956 angstroms
 prteigrs : about to open file 3H-2110_gw_o_DS2_EIG
 Eigenvalues (hartree) for nkpt=  16  k points:
 kpt#   1, nband=  1704, wtk=  0.02778, kpt=  0.0000  0.0000  0.0000 (reduced coord)
  -0.83800   -0.79751   -0.73183   -0.65224   -0.64569   -0.63435   -0.60857   -0.59791
  -0.58656   -0.58370   -0.55070   -0.54482   -0.53846   -0.50796   -0.49036   -0.46759
  -0.46645   -0.45739   -0.42860   -0.42464   -0.41335   -0.40907   -0.40723   -0.40312
  -0.37074   -0.36989   -0.36885   -0.35339   -0.34389   -0.33024   -0.31881   -0.31276
  -0.30535   -0.29974   -0.27818   -0.27664   -0.27658   -0.26396   -0.25774   -0.25495
  -0.22266   -0.20423   -0.20278   -0.18751   -0.18587   -0.18576   -0.13742   -0.13139
  -0.12759   -0.08194   -0.06899   -0.06797    0.00786    0.01653    0.05605    0.07430
   0.10169    0.11246    0.12054    0.13424    0.14546    0.15843    0.15900    0.16787
   0.16903    0.19043    0.20492    0.20879    0.23457    0.23875    0.24455    0.25805
   0.25951    0.26612    0.27136    0.27479    0.29808    0.31318    0.31624    0.32224
   0.32315    0.32586    0.33260    0.33369    0.33811    0.34718    0.35611    0.36464
   0.36818    0.38003    0.38703    0.38705    0.38954    0.39802    0.40215    0.40759
   0.41080    0.41502    0.42015    0.42966    0.43179    0.43236    0.44348    0.45311
   0.45364    0.46161    0.46681    0.47301    0.47699    0.47991    0.48315    0.49189
   0.49964    0.50127    0.51177    0.51820    0.51987    0.52172    0.53029    0.53529
   0.54486    0.54649    0.55614    0.55781    0.55979    0.56735    0.57479    0.57766
   0.57867    0.57994    0.58070    0.58328    0.58849    0.58903    0.58939    0.59512
   0.59861    0.60262    0.60580    0.60892    0.62408    0.63104    0.63104    0.63687
   0.64342    0.65568    0.65652    0.66213    0.66254    0.66551    0.67113    0.67191
   0.67646    0.68217    0.68218    0.69871    0.70108    0.70539    0.70728    0.70969
   0.71728    0.71763    0.72203    0.72816    0.73419    0.75100    0.75363    0.75817
   0.75863    0.76716    0.77563    0.77665    0.77963    0.78497    0.78878    0.79040
   0.80634    0.80840    0.81845    0.82798    0.83227    0.84085    0.84500    0.85845
   0.85891    0.87711    0.87939    0.88968    0.88971    0.89988    0.90395    0.90797
   0.91180    0.91198    0.91213    0.92018    0.92836    0.93149    0.93750    0.93902
   0.94383    0.94384    0.94547    0.94789    0.94926    0.95077    0.95397    0.95610
   0.95763    0.95993    0.96240    0.96517    0.96722    0.96784    0.97399    0.97489
   0.97518    0.97655    0.97656    0.98049    0.98496    0.98651    0.99558    0.99611
   0.99824    0.99889    1.00114    1.00580    1.00644    1.01067    1.01384    1.01465
   1.01772    1.01996    1.02627    1.02876    1.02897    1.03467    1.03566    1.04308
   1.04563    1.05239    1.05249    1.05378    1.05490    1.05523    1.06363    1.06749
   1.06918    1.07468    1.07925    1.08329    1.09142    1.09299    1.09395    1.10021
   1.10247    1.11029    1.11224    1.11324    1.11574    1.11974    1.12465    1.12709
   1.12938    1.13123    1.13252    1.13384    1.14211    1.14547    1.15213    1.15217
   1.15247    1.16092    1.16328    1.16518    1.16728    1.17369    1.17637    1.17927
   1.18037    1.19405    1.19410    1.19562    1.19671    1.19889    1.20131    1.20750
   1.20950    1.21054    1.21194    1.21552    1.22813    1.23107    1.23120    1.23154
   1.23233    1.24919    1.24973    1.25060    1.25211    1.25402    1.25460    1.25493
   1.25522    1.25542    1.25564    1.25893    1.25928    1.26009    1.26097    1.26304
   1.26395    1.26403    1.26477    1.26867    1.26958    1.27286    1.27318    1.27500
   1.27985    1.28069    1.28192    1.28525    1.28562    1.28624    1.28659    1.29091
   1.29426    1.29598    1.30246    1.30288    1.30517    1.30678    1.30865    1.30892
   1.31090    1.31305    1.31366    1.31452    1.31542    1.31945    1.32176    1.32392
   1.32730    1.32730    1.33215    1.33365    1.33722    1.34002    1.34064    1.34107
   1.34614    1.35019    1.35176    1.35405    1.35551    1.35691    1.35991    1.36326
   1.36334    1.36421    1.36662    1.37811    1.37923    1.38033    1.38204    1.38275
   1.38330    1.38745    1.38833    1.38853    1.39361    1.39649    1.40076    1.40243
   1.40421    1.40667    1.41012    1.41116    1.41172    1.41271    1.41540    1.41557
   1.41882    1.42073    1.42337    1.42687    1.43274    1.43525    1.43768    1.44010
   1.44479    1.44644    1.45060    1.45122    1.45274    1.45342    1.45448    1.46105
   1.46214    1.46703    1.46784    1.47005    1.47326    1.47680    1.47861    1.48177
   1.48203    1.48206    1.48377    1.48818    1.49648    1.50087    1.50229    1.50357
   1.50382    1.50841    1.51185    1.51204    1.51974    1.52279    1.52279    1.52487
   1.52562    1.52765    1.53082    1.53087    1.53400    1.53894    1.54131    1.54137
   1.54321    1.54788    1.54873    1.55267    1.55545    1.55724    1.55854    1.56346
   1.56598    1.56761    1.56854    1.57343    1.57429    1.57456    1.58213    1.58436
   1.59060    1.59622    1.59807    1.59965    1.60044    1.60051    1.60311    1.60446
   1.60518    1.60646    1.60715    1.61021    1.61103    1.61449    1.62141    1.62263
   1.62298    1.62501    1.62664    1.62727    1.63968    1.64181    1.64612    1.64715
   1.65148    1.65537    1.65771    1.65979    1.66264    1.67151    1.67276    1.67787
   1.68090    1.68433    1.68436    1.68468    1.68643    1.68894    1.69141    1.69341
   1.69611    1.69650    1.69702    1.69844    1.70628    1.71295    1.71311    1.71524
   1.71570    1.71799    1.72073    1.72175    1.72722    1.72752    1.73293    1.73494
   1.73864    1.74166    1.74650    1.74741    1.75011    1.75079    1.75125    1.75929
   1.76200    1.76275    1.76451    1.76496    1.77180    1.77365    1.77377    1.78058
   1.78198    1.78233    1.78263    1.79014    1.79287    1.79389    1.79613    1.79961
   1.80258    1.80391    1.80461    1.80557    1.80767    1.81104    1.81165    1.81232
   1.81378    1.81621    1.81770    1.81945    1.82074    1.82382    1.82772    1.82908
   1.83021    1.83587    1.83602    1.83841    1.83867    1.83929    1.84396    1.84681
   1.84701    1.84984    1.84993    1.85093    1.85474    1.86019    1.86136    1.86478
   1.86642    1.86807    1.87504    1.87512    1.88145    1.88210    1.88587    1.88786
   1.88827    1.88857    1.88962    1.89030    1.89192    1.89208    1.89407    1.89436
   1.89818    1.89952    1.89965    1.90379    1.90415    1.90568    1.90806    1.90818
   1.90909    1.90928    1.91613    1.91758    1.91935    1.91973    1.92122    1.92154
   1.92360    1.92452    1.92509    1.92760    1.92878    1.93248    1.93310    1.93345
   1.93362    1.94011    1.94039    1.94156    1.94212    1.94402    1.94536    1.94729
   1.94865    1.94933    1.95158    1.95304    1.96036    1.96253    1.96386    1.96563
   1.97118    1.97506    1.97634    1.97761    1.97769    1.97909    1.98038    1.98041
   1.98483    1.98547    1.98980    1.99008    1.99355    1.99650    1.99722    2.00130
   2.00286    2.00473    2.00513    2.01219    2.01412    2.01787    2.01857    2.02249
   2.02261    2.02268    2.02784    2.02890    2.02930    2.03197    2.03254    2.03779
   2.04068    2.04195    2.04380    2.04481    2.04645    2.04980    2.05017    2.05508
   2.05931    2.05965    2.06064    2.06146    2.06164    2.06370    2.06741    2.07353
   2.07662    2.07915    2.08029    2.08240    2.08341    2.08427    2.08582    2.09097
   2.09114    2.09699    2.09945    2.09991    2.10438    2.10520    2.10600    2.10770
   2.11076    2.11134    2.11312    2.11452    2.11558    2.11559    2.11662    2.11735
   2.11918    2.11921    2.11975    2.12113    2.12166    2.12168    2.12302    2.12511
   2.12543    2.12638    2.12678    2.12954    2.12992    2.13055    2.13341    2.13345
   2.13387    2.13482    2.13632    2.14381    2.14443    2.14489    2.14548    2.14887
   2.14891    2.15133    2.15140    2.15655    2.15758    2.15878    2.15994    2.16001
   2.16231    2.16292    2.16593    2.16771    2.16948    2.17114    2.17223    2.17271
   2.17693    2.17803    2.18189    2.18241    2.18486    2.18625    2.18652    2.18664
   2.18669    2.18706    2.18805    2.18923    2.18930    2.19064    2.19101    2.19222
   2.19245    2.19268    2.19284    2.19485    2.19592    2.19828    2.20005    2.20046
   2.20191    2.20271    2.20282    2.20316    2.20480    2.20590    2.20594    2.20704
   2.20754    2.20972    2.20991    2.21109    2.21290    2.21518    2.21547    2.21729
   2.21735    2.21847    2.21884    2.22002    2.22165    2.22533    2.22633    2.22787
   2.22801    2.23035    2.23170    2.23212    2.23260    2.23441    2.23705    2.23862
   2.24120    2.24259    2.24345    2.24494    2.24722    2.24909    2.25145    2.25149
   2.25285    2.25420    2.25539    2.25792    2.25887    2.25949    2.25955    2.26002
   2.26086    2.26371    2.26478    2.26521    2.26543    2.26690    2.27206    2.27311
   2.27344    2.27728    2.27921    2.27946    2.28217    2.28454    2.28591    2.28970
   2.29058    2.29171    2.29538    2.29629    2.29675    2.29895    2.30040    2.30063
   2.30147    2.30383    2.30542    2.30894    2.31569    2.31610    2.31617    2.31947
   2.32027    2.32214    2.32414    2.32446    2.32645    2.32661    2.32670    2.32974
   2.32999    2.33113    2.33517    2.33717    2.33780    2.33871    2.33976    2.34185
   2.34373    2.34776    2.34781    2.34819    2.34836    2.34886    2.35180    2.35228
   2.35317    2.35389    2.35776    2.35845    2.36012    2.36052    2.36540    2.36974
   2.37093    2.37515    2.37604    2.37712    2.38161    2.38171    2.38207    2.38798
   2.39036    2.39075    2.39223    2.39296    2.39673    2.39698    2.39809    2.39839
   2.39882    2.40119    2.40356    2.40458    2.40873    2.41043    2.41165    2.41288
   2.41363    2.41667    2.41958    2.42332    2.42340    2.42350    2.42409    2.42825
   2.42898    2.43661    2.43771    2.43814    2.44062    2.44094    2.44133    2.44273
   2.44276    2.44359    2.44734    2.44847    2.44987    2.45015    2.45057    2.45153
   2.45561    2.45866    2.46210    2.46291    2.46342    2.46574    2.46607    2.46715
   2.46808    2.46909    2.46909    2.47479    2.47782    2.48016    2.48048    2.48384
   2.48563    2.48722    2.48810    2.48942    2.48987    2.49217    2.49355    2.49423
   2.49657    2.49673    2.49735    2.49885    2.49963    2.50316    2.50516    2.50959
   2.51183    2.51287    2.52232    2.52325    2.52494    2.52526    2.52952    2.53211
   2.53248    2.53437    2.53451    2.53736    2.53759    2.53836    2.53860    2.53927
   2.54527    2.54585    2.54842    2.54943    2.55422    2.55709    2.55709    2.56058
   2.56067    2.56091    2.56225    2.56293    2.56595    2.56618    2.56761    2.57142
   2.57373    2.57434    2.57664    2.57722    2.58205    2.58441    2.58708    2.58857
   2.58963    2.59434    2.59456    2.59669    2.59680    2.59934    2.59937    2.60577
   2.60737    2.60825    2.60953    2.61096    2.61236    2.61274    2.61305    2.62481
   2.62700    2.62702    2.62884    2.63094    2.63156    2.63250    2.63256    2.63523
   2.63668    2.63707    2.63871    2.63909    2.63965    2.64068    2.64646    2.65409
   2.65587    2.65591    2.65752    2.65782    2.65862    2.65918    2.66171    2.66449
   2.66698    2.66764    2.66810    2.67057    2.67849    2.68088    2.68104    2.68263
   2.68492    2.68572    2.68758    2.68841    2.69739    2.69883    2.69890    2.69996
   2.70089    2.70715    2.71105    2.71207    2.71228    2.71336    2.71433    2.71793
   2.72062    2.72122    2.72198    2.72229    2.72826    2.72983    2.73604    2.73791
   2.73917    2.74101    2.74107    2.74149    2.74188    2.74445    2.74473    2.74664
   2.74870    2.75046    2.75241    2.75471    2.75589    2.75677    2.75935    2.76298
   2.76305    2.76320    2.76387    2.76459    2.76511    2.76816    2.77039    2.77652
   2.77920    2.78216    2.78409    2.78433    2.78829    2.78994    2.79154    2.79667
   2.79783    2.79850    2.79907    2.80517    2.80571    2.80722    2.81000    2.81093
   2.81179    2.81233    2.81337    2.81362    2.81371    2.81535    2.81976    2.82221
   2.82584    2.82781    2.83582    2.83726    2.83801    2.84136    2.84300    2.84439
   2.84766    2.84782    2.85188    2.85409    2.85431    2.85897    2.86039    2.86144
   2.86206    2.86225    2.86411    2.86629    2.87024    2.87211    2.87333    2.87421
   2.87464    2.87625    2.87701    2.88031    2.88081    2.88257    2.88740    2.88905
   2.89183    2.89185    2.89191    2.89216    2.89646    2.90088    2.90400    2.90489
   2.90715    2.90734    2.91021    2.91092    2.91207    2.91473    2.91772    2.91822
   2.91931    2.92138    2.92159    2.92261    2.92437    2.92634    2.93024    2.93315
   2.93339    2.93460    2.93590    2.93799    2.93830    2.94192    2.94285    2.94624
   2.94925    2.95086    2.95449    2.95642    2.95864    2.96015    2.96037    2.96437
   2.96839    2.96841    2.96865    2.96918    2.96945    2.97418    2.97583    2.97742
   2.98212    2.98543    2.98596    2.98606    2.98947    2.98997    2.99025    2.99085
   2.99439    2.99481    2.99628    2.99685    2.99995    3.00083    3.00261    3.00483
   3.00640    3.01105    3.01190    3.01376    3.01774    3.01906    3.01957    3.02004
   3.02031    3.02350    3.02908    3.02910    3.03013    3.03057    3.03236    3.03300
   3.03514    3.03733    3.03741    3.04179    3.04294    3.04677    3.04740    3.04780
   3.04780    3.04789    3.05024    3.05051    3.05176    3.05253    3.05278    3.05355
   3.05380    3.05444    3.05674    3.05702    3.05759    3.05978    3.06173    3.06261
   3.06405    3.06459    3.06676    3.06714    3.06887    3.06929    3.07188    3.07283
   3.07371    3.07763    3.07819    3.07996    3.08177    3.08212    3.08227    3.08422
   3.08539    3.08567    3.08902    3.08935    3.09083    3.09125    3.09280    3.09391
   3.09396    3.09417    3.09545    3.09664    3.09718    3.09825    3.10142    3.10245
   3.10437    3.10503    3.10700    3.10722    3.10952    3.11086    3.11253    3.11300
   3.11594    3.11940    3.11983    3.12004    3.12106    3.12233    3.12548    3.12588
   3.12773    3.13189    3.13211    3.13248    3.13351    3.13476    3.13596    3.13842
   3.13862    3.13902    3.13971    3.14266    3.14279    3.14326    3.14648    3.14763
[...]
   3.30524    3.30726    3.30967    3.31043    3.31261    3.31298    3.31601    3.31655
   3.31695    3.32183    3.32251    3.32280    3.32381    3.32551    3.33017    3.33070
   3.33265    3.33499    3.33519    3.34101    3.34145    3.34165    3.34361    3.34373
   3.34382    3.34858    3.34912    3.35136    3.35170    3.35176    3.35626    3.35641
   3.35936    3.36175    3.36229    3.36449    3.36611    3.37069    3.37170    3.37228
   3.37357    3.37482    3.37522    3.37793    3.37797    3.37816    3.38137    3.38300
   3.38368    3.38647    3.38693    3.39000    3.39117    3.39129    3.39332    3.39659
   3.39759    3.39786    3.39828    3.39948    3.40326    3.40470    3.40530    3.40685
   3.40707    3.40944    3.41106    3.41186    3.41262    3.41596    3.41866    3.41941
   3.42072    3.42192    3.42345    3.42408    3.42605    3.42803    3.42858    3.42895
   3.43158    3.43257    3.43365    3.43796    3.44176    3.44187    3.44547    3.44733
   3.44801    3.44809    3.45115    3.45288    3.45303    3.45338    3.45437    3.45885
   3.45941    3.46085    3.46229    3.46400    3.46435    3.46481    3.46665    3.46756
   3.46788    3.46900    3.47093    3.47361    3.47463    3.47692    3.47832    3.47873
   3.47877    3.48066    3.48209    3.48311    3.48372    3.48414    3.48630    3.48666
   3.48868    3.48992    3.49282    3.49389    3.49480    3.49589    3.49700    3.49794
   3.49961    3.50223    3.50471    3.50595    3.50599    3.50969    3.51013    3.51227
   3.51821    3.51933    3.52071    3.52336    3.52473    3.52484    3.52592    3.52601
   3.52622    3.52788    3.52862    3.53130    3.53236    3.53418    3.53583    3.53586
   3.53605    3.54236    3.54407    3.54521    3.54768    3.55007    3.55047    3.55103
   3.55134    3.55159    3.55167    3.55213    3.55257    3.55322    3.55337    3.55553
   3.55654    3.55703    3.55721    3.55780    3.55788    3.56003    3.56051    3.56100
   3.56134    3.56301    3.56396    3.56507    3.56633    3.56859    3.56881    3.56901
   3.56919    3.57109    3.57166    3.57172    3.57191    3.57331    3.57761    3.57891
   3.57919    3.57939    3.57981    3.58211    3.58215    3.58228    3.58475    3.58642
   3.58785    3.58790    3.58855    3.58949    3.59329    3.59507    3.59538    3.59706
   3.59788    3.59830    3.59892    3.60308    3.60640    3.60852    3.60908    3.61083
   3.61181    3.61205    3.61514    3.61621    3.61783    3.61793    3.61983    3.62022
   3.62155    3.62226    3.62272    3.62489    3.62786    3.62841    3.63038    3.63084
   3.63202    3.63308    3.63309    3.63362    3.63459    3.63760    3.63936    3.64048
   3.64144    3.64493    3.64514    3.64594    3.64615    3.64707    3.64722    3.64851
   3.64884    3.64889    3.65078    3.65169    3.65384    3.65515    3.65690    3.65912
   3.65986    3.66174    3.66361    3.66540    3.66756    3.66786    3.66924    3.67423
   3.67478    3.67547    3.67651    3.67697    3.67737    3.68051    3.68192    3.68265
   3.68677    3.68693    3.69304    3.69381    3.69550    3.69566    3.69605    3.69690
   3.69984    3.70121    3.70214    3.70432    3.70583    3.70870    3.70978    3.70997
   3.71035    3.71165    3.71309    3.71396    3.71568    3.71780    3.71990    3.72101
 prteigrs : prtvol=0 or 1, do not print more k-points.
 
 
== END DATASET(S) ==============================================================
================================================================================
  
 -outvars: echo values of variables after computation  --------
-          iomode           1
            acell      7.9710703563E+00  8.2924089954E+00  8.1258223714E+01 Bohr
              amu      1.20110000E+01  1.00794000E+00
          chkprim           0
     densfor_pred           6
           diemac      1.20000000E+01
             ecut      5.00000000E+01 Hartree
-          fftalg         512
           getden           1
      gw_icutcoul           2
             iscf          -2
           istwfk        1    0    0    1    0    0    0    0    0    0
                         0    0    1    0    0    1
              ixc     -208012
           jdtset        2
              kpt      0.00000000E+00  0.00000000E+00  0.00000000E+00
                       1.66666667E-01  0.00000000E+00  0.00000000E+00
                       3.33333333E-01  0.00000000E+00  0.00000000E+00
                       5.00000000E-01  0.00000000E+00  0.00000000E+00
                       0.00000000E+00  1.66666667E-01  0.00000000E+00
                       1.66666667E-01  1.66666667E-01  0.00000000E+00
                       3.33333333E-01  1.66666667E-01  0.00000000E+00
                       5.00000000E-01  1.66666667E-01  0.00000000E+00
                       0.00000000E+00  3.33333333E-01  0.00000000E+00
                       1.66666667E-01  3.33333333E-01  0.00000000E+00
                       3.33333333E-01  3.33333333E-01  0.00000000E+00
                       5.00000000E-01  3.33333333E-01  0.00000000E+00
                       0.00000000E+00  5.00000000E-01  0.00000000E+00
                       1.66666667E-01  5.00000000E-01  0.00000000E+00
                       3.33333333E-01  5.00000000E-01  0.00000000E+00
                       5.00000000E-01  5.00000000E-01  0.00000000E+00
         kptrlatt        6    0    0      0    6    0      0    0    1
          kptrlen      4.78264221E+01
P           mkmem           1
            natom          32
            nband        1704
           nbdbuf         213
           ndtset           1
            ngfft          54      54     540
             nkpt          16
-          npband           4
-        np_spkpt          16
            nstep         100
             nsym           8
           ntypat           2
           ortalg          -2
        paral_kgb           1
          prtkden           1
          spgroup          57
           symrel      1  0  0   0  1  0   0  0  1      -1  0  0   0 -1  0   0  0 -1
                      -1  0  0   0  1  0   0  0 -1       1  0  0   0 -1  0   0  0  1
                      -1  0  0   0 -1  0   0  0  1       1  0  0   0  1  0   0  0 -1
                       1  0  0   0 -1  0   0  0 -1      -1  0  0   0  1  0   0  0  1
            tnons      0.0000000  0.0000000  0.0000000    -0.0000000  0.0000000  0.0000000
                       0.5000000  0.5000000  0.0000000     0.5000000  0.5000000  0.0000000
                      -0.0000000  0.5000000  0.0000000     0.0000000  0.5000000  0.0000000
                       0.5000000  0.0000000  0.0000000     0.5000000  0.0000000  0.0000000
           tolsym      1.00000000E-04
           tolwfr      1.00000000E-18
            typat      1  1  1  1  1  1  1  1  1  1  1  1  1  1  1  1  1  1  1  1
                       1  1  1  1  2  2  2  2  2  2  2  2
          usekden           1
          vcutgeo      1.0000000  1.0000000  0.0000000
         wfoptalg         114
              wtk        0.02778    0.05556    0.05556    0.02778    0.05556    0.11111
                         0.11111    0.05556    0.05556    0.11111    0.11111    0.05556
                         0.02778    0.05556    0.05556    0.02778
           xangst      1.8274779776E+00  1.8068254512E+00  1.8390210999E+01
                       2.3906307830E+00  2.5813283935E+00  2.4609789001E+01
                       3.9365323579E+00  2.5813283935E+00  2.4609789001E+01
                       2.8157640269E-01  1.8068254512E+00  1.8390210999E+01
                       2.8157640269E-01  4.0009023735E+00  2.4609789001E+01
                       3.9365323579E+00  3.8725147116E-01  1.8390210999E+01
                       2.3906307830E+00  3.8725147116E-01  1.8390210999E+01
                       1.8274779776E+00  4.0009023735E+00  2.4609789001E+01
                       1.8453529137E+00  1.8292891124E+00  2.0872377757E+01
                       2.3727558469E+00  2.5588647323E+00  2.2127622243E+01
                       3.9544072941E+00  2.5588647323E+00  2.2127622243E+01
                       2.6370146656E-01  1.8292891124E+00  2.0872377757E+01
                       2.6370146656E-01  4.0233660347E+00  2.2127622243E+01
                       3.9544072941E+00  3.6478780997E-01  2.0872377757E+01
                       2.3727558469E+00  3.6478780997E-01  2.0872377757E+01
                       1.8453529137E+00  4.0233660347E+00  2.2127622243E+01
                       1.8439494302E+00  1.8248219548E+00  2.3386652101E+01
                       2.3741593304E+00  2.5633318899E+00  1.9613347899E+01
                       3.9530038105E+00  2.5633318899E+00  1.9613347899E+01
                       2.6510495009E-01  1.8248219548E+00  2.3386652101E+01
                       2.6510495009E-01  4.0188988771E+00  1.9613347899E+01
                       3.9530038105E+00  3.6925496756E-01  2.3386652101E+01
                       2.3741593304E+00  3.6925496756E-01  2.3386652101E+01
                       1.8439494302E+00  4.0188988771E+00  1.9613347899E+01
                       5.5135131688E-02  4.2776651549E+00  1.7473225849E+01
                       4.1629736289E+00  1.1048868981E-01  2.5526774151E+01
                       2.1641895120E+00  1.1048868981E-01  2.5526774151E+01
                       2.0539192486E+00  4.2776651549E+00  1.7473225849E+01
                       2.0539192486E+00  2.0835882325E+00  2.5526774151E+01
                       2.1641895120E+00  2.3045656121E+00  1.7473225849E+01
                       4.1629736289E+00  2.3045656121E+00  1.7473225849E+01
                       5.5135131688E-02  2.0835882325E+00  2.5526774151E+01
            xcart      3.4534328916E+00  3.4144052727E+00  3.4752462313E+01
                       4.5176374647E+00  4.8780037227E+00  4.6505761401E+01
                       7.4389680697E+00  4.8780037227E+00  4.6505761401E+01
                       5.3210228657E-01  3.4144052727E+00  3.4752462313E+01
                       5.3210228657E-01  7.5606097704E+00  4.6505761401E+01
                       7.4389680697E+00  7.3179922505E-01  3.4752462313E+01
                       4.5176374647E+00  7.3179922505E-01  3.4752462313E+01
                       3.4534328916E+00  7.5606097704E+00  4.6505761401E+01
                       3.4872116255E+00  3.4568554402E+00  3.9443077703E+01
                       4.4838587308E+00  4.8355535552E+00  4.1815146011E+01
                       7.4727468037E+00  4.8355535552E+00  4.1815146011E+01
                       4.9832355264E-01  3.4568554402E+00  3.9443077703E+01
                       4.9832355264E-01  7.6030599379E+00  4.1815146011E+01
                       7.4727468037E+00  6.8934905746E-01  3.9443077703E+01
                       4.4838587308E+00  6.8934905746E-01  3.9443077703E+01
                       3.4872116255E+00  7.6030599379E+00  4.1815146011E+01
                       3.4845594260E+00  3.4484137358E+00  4.4194367636E+01
                       4.4865109303E+00  4.8439952596E+00  3.7063856078E+01
                       7.4700946042E+00  4.8439952596E+00  3.7063856078E+01
                       5.0097575214E-01  3.4484137358E+00  4.4194367636E+01
                       5.0097575214E-01  7.5946182335E+00  3.7063856078E+01
                       7.4700946042E+00  6.9779076190E-01  4.4194367636E+01
                       4.4865109303E+00  6.9779076190E-01  4.4194367636E+01
                       3.4845594260E+00  7.5946182335E+00  3.7063856078E+01
                       1.0419029919E-01  8.0836156309E+00  3.3019611513E+01
                       7.8668800571E+00  2.0879336453E-01  4.8238612201E+01
                       4.0897254773E+00  2.0879336453E-01  4.8238612201E+01
                       3.8813448790E+00  8.0836156309E+00  3.3019611513E+01
                       3.8813448790E+00  3.9374111332E+00  4.8238612201E+01
                       4.0897254773E+00  4.3549978622E+00  3.3019611513E+01
                       7.8668800571E+00  4.3549978622E+00  3.3019611513E+01
                       1.0419029919E-01  3.9374111332E+00  4.8238612201E+01
             xred      4.3324581734E-01  4.1175070773E-01  4.2767932555E-01
                       5.6675418266E-01  5.8824929227E-01  5.7232067445E-01
                       9.3324581734E-01  5.8824929227E-01  5.7232067445E-01
                       6.6754182661E-02  4.1175070773E-01  4.2767932555E-01
                       6.6754182661E-02  9.1175070773E-01  5.7232067445E-01
                       9.3324581734E-01  8.8249292269E-02  4.2767932555E-01
                       5.6675418266E-01  8.8249292269E-02  4.2767932555E-01
                       4.3324581734E-01  9.1175070773E-01  5.7232067445E-01
                       4.3748348335E-01  4.1686986763E-01  4.8540413389E-01
                       5.6251651665E-01  5.8313013237E-01  5.1459586611E-01
                       9.3748348335E-01  5.8313013237E-01  5.1459586611E-01
                       6.2516516649E-02  4.1686986763E-01  4.8540413389E-01
                       6.2516516649E-02  9.1686986763E-01  5.1459586611E-01
                       9.3748348335E-01  8.3130132371E-02  4.8540413389E-01
                       5.6251651665E-01  8.3130132371E-02  4.8540413389E-01
                       4.3748348335E-01  9.1686986763E-01  5.1459586611E-01
                       4.3715075520E-01  4.1585186376E-01  5.4387563026E-01
                       5.6284924480E-01  5.8414813624E-01  4.5612436974E-01
                       9.3715075520E-01  5.8414813624E-01  4.5612436974E-01
                       6.2849244800E-02  4.1585186376E-01  5.4387563026E-01
                       6.2849244800E-02  9.1585186376E-01  4.5612436974E-01
                       9.3715075520E-01  8.4148136240E-02  5.4387563026E-01
                       5.6284924480E-01  8.4148136240E-02  5.4387563026E-01
                       4.3715075520E-01  9.1585186376E-01  4.5612436974E-01
                       1.3071055019E-02  9.7482114490E-01  4.0635408952E-01
                       9.8692894498E-01  2.5178855100E-02  5.9364591048E-01
                       5.1307105502E-01  2.5178855100E-02  5.9364591048E-01
                       4.8692894498E-01  9.7482114490E-01  4.0635408952E-01
                       4.8692894498E-01  4.7482114490E-01  5.9364591048E-01
                       5.1307105502E-01  5.2517885510E-01  4.0635408952E-01
                       9.8692894498E-01  5.2517885510E-01  4.0635408952E-01
                       1.3071055019E-02  4.7482114490E-01  5.9364591048E-01
            znucl        6.00000    1.00000
 
================================================================================


- Timing analysis has been suppressed with timopt=0



================================================================================

 Suggested references for the acknowledgment of ABINIT usage.

 The users of ABINIT have little formal obligations with respect to the ABINIT group
 (those specified in the GNU General Public License, http://www.gnu.org/copyleft/gpl.txt).
 However, it is common practice in the scientific literature,
 to acknowledge the efforts of people that have made the research possible.
 In this spirit, please find below suggested citations of work written by ABINIT developers,
 corresponding to implementations inside of ABINIT that you have used in the present run.
 Note also that it will be of great value to readers of publications presenting these results,
 to read papers enabling them to understand the theoretical formalism and details
 of the ABINIT implementation.
 For information on why they are suggested, see also https://docs.abinit.org/theory/acknowledgments.
-
- [1] Libxc: A library of exchange and correlation functionals for density functional theory.
- M.A.L. Marques, M.J.T. Oliveira, T. Burnus, Computer Physics Communications 183, 2227 (2012).
- Comment: to be cited when LibXC is used (negative value of ixc)
- Strong suggestion to cite this paper.
- DOI and bibtex: see https://docs.abinit.org/theory/bibliography/#marques2012
-
- [2] Large scale ab initio calculations based on three levels of parallelization
- F. Bottin, S. Leroux, A. Knyazev, G. Zerah, Comput. Mat. Science 42, 329, (2008).
- Comment: in case LOBPCG algorithm is used (wfoptalg=4/14/114).
- Strong suggestion to cite this paper in your publications.
- This paper is also available at http://www.arxiv.org/abs/0707.3405
- DOI and bibtex: see https://docs.abinit.org/theory/bibliography/#bottin2008
-
- [3] The Abinit project: Impact, environment and recent developments.
- Computer Phys. Comm. 248, 107042 (2020).
- X.Gonze, B. Amadon, G. Antonius, F.Arnardi, L.Baguet, J.-M.Beuken,
- J.Bieder, F.Bottin, J.Bouchet, E.Bousquet, N.Brouwer, F.Bruneval,
- G.Brunin, T.Cavignac, J.-B. Charraud, Wei Chen, M.Cote, S.Cottenier,
- J.Denier, G.Geneste, Ph.Ghosez, M.Giantomassi, Y.Gillet, O.Gingras,
- D.R.Hamann, G.Hautier, Xu He, N.Helbig, N.Holzwarth, Y.Jia, F.Jollet,
- W.Lafargue-Dit-Hauret, K.Lejaeghere, M.A.L.Marques, A.Martin, C.Martins,
- H.P.C. Miranda, F.Naccarato, K. Persson, G.Petretto, V.Planes, Y.Pouillon,
- S.Prokhorenko, F.Ricci, G.-M.Rignanese, A.H.Romero, M.M.Schmitt, M.Torrent,
- M.J.van Setten, B.Van Troeye, M.J.Verstraete, G.Zerah and J.W.Zwanzig
- Comment: the fifth generic paper describing the ABINIT project.
- Note that a version of this paper, that is not formatted for Computer Phys. Comm. 
- is available at https://www.abinit.org/sites/default/files/ABINIT20.pdf .
- The licence allows the authors to put it on the Web.
- DOI and bibtex: see https://docs.abinit.org/theory/bibliography/#gonze2020
-
- [4] ABINIT: Overview, and focus on selected capabilities
- J. Chem. Phys. 152, 124102 (2020).
- A. Romero, D.C. Allan, B. Amadon, G. Antonius, T. Applencourt, L.Baguet,
- J.Bieder, F.Bottin, J.Bouchet, E.Bousquet, F.Bruneval,
- G.Brunin, D.Caliste, M.Cote,
- J.Denier, C. Dreyer, Ph.Ghosez, M.Giantomassi, Y.Gillet, O.Gingras,
- D.R.Hamann, G.Hautier, F.Jollet, G. Jomard,
- A.Martin, 
- H.P.C. Miranda, F.Naccarato, G.Petretto, N.A. Pike, V.Planes,
- S.Prokhorenko, T. Rangel, F.Ricci, G.-M.Rignanese, M.Royo, M.Stengel, M.Torrent,
- M.J.van Setten, B.Van Troeye, M.J.Verstraete, J.Wiktor, J.W.Zwanziger, and X.Gonze.
- Comment: a global overview of ABINIT, with focus on selected capabilities .
- Note that a version of this paper, that is not formatted for J. Chem. Phys 
- is available at https://www.abinit.org/sites/default/files/ABINIT20_JPC.pdf .
- The licence allows the authors to put it on the Web.
- DOI and bibtex: see https://docs.abinit.org/theory/bibliography/#romero2020
-
- [5] Recent developments in the ABINIT software package.
- Computer Phys. Comm. 205, 106 (2016).
- X.Gonze, F.Jollet, F.Abreu Araujo, D.Adams, B.Amadon, T.Applencourt,
- C.Audouze, J.-M.Beuken, J.Bieder, A.Bokhanchuk, E.Bousquet, F.Bruneval
- D.Caliste, M.Cote, F.Dahm, F.Da Pieve, M.Delaveau, M.Di Gennaro,
- B.Dorado, C.Espejo, G.Geneste, L.Genovese, A.Gerossier, M.Giantomassi,
- Y.Gillet, D.R.Hamann, L.He, G.Jomard, J.Laflamme Janssen, S.Le Roux,
- A.Levitt, A.Lherbier, F.Liu, I.Lukacevic, A.Martin, C.Martins,
- M.J.T.Oliveira, S.Ponce, Y.Pouillon, T.Rangel, G.-M.Rignanese,
- A.H.Romero, B.Rousseau, O.Rubel, A.A.Shukri, M.Stankovski, M.Torrent,
- M.J.Van Setten, B.Van Troeye, M.J.Verstraete, D.Waroquier, J.Wiktor,
- B.Xu, A.Zhou, J.W.Zwanziger.
- Comment: the fourth generic paper describing the ABINIT project.
- Note that a version of this paper, that is not formatted for Computer Phys. Comm. 
- is available at https://www.abinit.org/sites/default/files/ABINIT16.pdf .
- The licence allows the authors to put it on the Web.
- DOI and bibtex: see https://docs.abinit.org/theory/bibliography/#gonze2016
-
- Proc.   0 individual time (sec): cpu=      17516.2  wall=      17625.1
 
================================================================================
 
 Calculation completed.
.Delivered   0 WARNINGs and   2 COMMENTs to log file.
+Overall time at end (sec) : cpu=    1121873.0  wall=    1127996.7
