
.Version 9.7.2 of ABINIT 
.(MPI version, prepared for a x86_64_linux_intel2021.2 computer) 

.Copyright (C) 1998-2021 ABINIT group . 
 ABINIT comes with ABSOLUTELY NO WARRANTY.
 It is free software, and you are welcome to redistribute it
 under certain conditions (GNU General Public License,
 see ~abinit/COPYING or http://www.gnu.org/copyleft/gpl.txt).

 ABINIT is a project of the Universite Catholique de Louvain,
 Corning Inc. and other collaborators, see ~abinit/doc/developers/contributors.txt .
 Please read https://docs.abinit.org/theory/acknowledgments for suggested
 acknowledgments of the ABINIT effort.
 For more information, see https://www.abinit.org .

.Starting date : Wed  2 Mar 2022.
- ( at 05h05 )
  
- input  file    -> ./3H-2110_gw.abi
- output file    -> 3H-2110_gw.abo
- root for input  files -> 3H-2110_gw_i
- root for output files -> 3H-2110_gw_o
 
 
 DATASET    3 : space group Pb c m (# 57); Bravais oP (primitive ortho.)
================================================================================
 Values of the parameters that define the memory need for DATASET  3.
     intxc =       0    ionmov =       0      iscf =       7    lmnmax =       1
     lnmax =       1     mgfft =     540  mpssoang =       2    mqgrid =   25866
     natom =      32  nloc_mem =       1    nspden =       1   nspinor =       1
    nsppol =       1      nsym =       8    n1xccc =       0    ntypat =       2
    occopt =       1   xclevel =       2
-    mband =         852        mffmem =           1         mkmem =           1
       mpw =       90853          nfft =     1574640          nkpt =          16
================================================================================
P This job should need less than                    1709.162 Mbytes of memory.
  Rough estimation (10% accuracy) of disk space for files :
_ WF disk file :  18898.136 Mbytes ; DEN or POT disk file :     12.016 Mbytes.
================================================================================
 
 
 DATASET    4 : space group Pb c m (# 57); Bravais oP (primitive ortho.)
================================================================================
 Values of the parameters that define the memory need for DATASET  4.
     intxc =       0    ionmov =       0      iscf =       7    lmnmax =       1
     lnmax =       1     mgfft =     540  mpssoang =       2    mqgrid =   25866
     natom =      32  nloc_mem =       1    nspden =       1   nspinor =       1
    nsppol =       1      nsym =       8    n1xccc =       0    ntypat =       2
    occopt =       1   xclevel =       2
-    mband =        1278        mffmem =           1         mkmem =           1
       mpw =       90853          nfft =     1574640          nkpt =          16
================================================================================
P This job should need less than                    2326.578 Mbytes of memory.
  Rough estimation (10% accuracy) of disk space for files :
_ WF disk file :  28347.203 Mbytes ; DEN or POT disk file :     12.016 Mbytes.
================================================================================
 
--------------------------------------------------------------------------------
------------- Echo of variables that govern the present computation ------------
--------------------------------------------------------------------------------
-
- outvars: echo of selected default values                                      
-   iomode0 =  0 , fftalg0 =512 , wfoptalg0 =  0
-
- outvars: echo of global parameters not present in the input file              
-  max_nthreads =    0
-
 -outvars: echo values of preprocessed input variables --------
            acell      7.9710703563E+00  8.2924089954E+00  8.1258223714E+01 Bohr
              amu      1.20110000E+01  1.00794000E+00
             bdgw4         50      53
          chkprim           0
           diemac      1.20000000E+01
             ecut      5.00000000E+01 Hartree
          ecuteps3     5.00000000E+00 Hartree
          ecuteps4     0.00000000E+00 Hartree
         ecutsigx3     0.00000000E+00 Hartree
         ecutsigx4     2.50000000E+01 Hartree
          ecutwfn      5.00000000E+01 Hartree
-          fftalg         512
           getscr3          0
           getscr4          3
           getwfk           2
      gw_icutcoul           2
           istwfk        1    0    0    1    0    0    0    0    0    0
                         0    0    1    0    0    1
              ixc     -208012
           jdtset        3    4
              kpt      0.00000000E+00  0.00000000E+00  0.00000000E+00
                       1.66666667E-01  0.00000000E+00  0.00000000E+00
                       3.33333333E-01  0.00000000E+00  0.00000000E+00
                       5.00000000E-01  0.00000000E+00  0.00000000E+00
                       0.00000000E+00  1.66666667E-01  0.00000000E+00
                       1.66666667E-01  1.66666667E-01  0.00000000E+00
                       3.33333333E-01  1.66666667E-01  0.00000000E+00
                       5.00000000E-01  1.66666667E-01  0.00000000E+00
                       0.00000000E+00  3.33333333E-01  0.00000000E+00
                       1.66666667E-01  3.33333333E-01  0.00000000E+00
                       3.33333333E-01  3.33333333E-01  0.00000000E+00
                       5.00000000E-01  3.33333333E-01  0.00000000E+00
                       0.00000000E+00  5.00000000E-01  0.00000000E+00
                       1.66666667E-01  5.00000000E-01  0.00000000E+00
                       3.33333333E-01  5.00000000E-01  0.00000000E+00
                       5.00000000E-01  5.00000000E-01  0.00000000E+00
            kptgw4     0.00000000E+00  0.00000000E+00  0.00000000E+00
         kptrlatt        6    0    0      0    6    0      0    0    1
          kptrlen      4.78264221E+01
P           mkmem           1
            natom          32
            nband3        852
            nband4       1278
           ndtset           2
            ngfft          54      54     540
             nkpt          16
           nkptgw3          0
           nkptgw4          1
           npweps3       2825
           npweps4          0
          npwsigx3          0
          npwsigx4      32005
           npwwfn       90853
            nstep         100
             nsym           8
           ntypat           2
              occ3     2.000000  2.000000  2.000000  2.000000  2.000000  2.000000
                       2.000000  2.000000  2.000000  2.000000  2.000000  2.000000
                       2.000000  2.000000  2.000000  2.000000  2.000000  2.000000
                       2.000000  2.000000  2.000000  2.000000  2.000000  2.000000
                       2.000000  2.000000  2.000000  2.000000  2.000000  2.000000
                       2.000000  2.000000  2.000000  2.000000  2.000000  2.000000
                       2.000000  2.000000  2.000000  2.000000  2.000000  2.000000
                       2.000000  2.000000  2.000000  2.000000  2.000000  2.000000
                       2.000000  2.000000  2.000000  2.000000  0.000000  0.000000
                       0.000000  0.000000  0.000000  0.000000  0.000000  0.000000
                       0.000000  0.000000  0.000000  0.000000  0.000000  0.000000
                       0.000000  0.000000  0.000000  0.000000  0.000000  0.000000
                       0.000000  0.000000  0.000000  0.000000  0.000000  0.000000
                       0.000000  0.000000  0.000000  0.000000  0.000000  0.000000
                       0.000000  0.000000  0.000000  0.000000  0.000000  0.000000
                       0.000000  0.000000  0.000000  0.000000  0.000000  0.000000
                       0.000000  0.000000  0.000000  0.000000  0.000000  0.000000
                       0.000000  0.000000  0.000000  0.000000  0.000000  0.000000
                       0.000000  0.000000  0.000000  0.000000  0.000000  0.000000
                       0.000000  0.000000  0.000000  0.000000  0.000000  0.000000
                       0.000000  0.000000  0.000000  0.000000  0.000000  0.000000
                       0.000000  0.000000  0.000000  0.000000  0.000000  0.000000
                       0.000000  0.000000  0.000000  0.000000  0.000000  0.000000
                       0.000000  0.000000  0.000000  0.000000  0.000000  0.000000
                       0.000000  0.000000  0.000000  0.000000  0.000000  0.000000
                       0.000000  0.000000  0.000000  0.000000  0.000000  0.000000
                       0.000000  0.000000  0.000000  0.000000  0.000000  0.000000
                       0.000000  0.000000  0.000000  0.000000  0.000000  0.000000
                       0.000000  0.000000  0.000000  0.000000  0.000000  0.000000
                       0.000000  0.000000  0.000000  0.000000  0.000000  0.000000
                       0.000000  0.000000  0.000000  0.000000  0.000000  0.000000
                       0.000000  0.000000  0.000000  0.000000  0.000000  0.000000
                       0.000000  0.000000  0.000000  0.000000  0.000000  0.000000
                       0.000000  0.000000  0.000000  0.000000  0.000000  0.000000
                       0.000000  0.000000  0.000000  0.000000  0.000000  0.000000
                       0.000000  0.000000  0.000000  0.000000  0.000000  0.000000
                       0.000000  0.000000  0.000000  0.000000  0.000000  0.000000
                       0.000000  0.000000  0.000000  0.000000  0.000000  0.000000
                       0.000000  0.000000  0.000000  0.000000  0.000000  0.000000
                       0.000000  0.000000  0.000000  0.000000  0.000000  0.000000
                       0.000000  0.000000  0.000000  0.000000  0.000000  0.000000
                       0.000000  0.000000  0.000000  0.000000  0.000000  0.000000
                       0.000000  0.000000  0.000000  0.000000  0.000000  0.000000
                       0.000000  0.000000  0.000000  0.000000  0.000000  0.000000
                       0.000000  0.000000  0.000000  0.000000  0.000000  0.000000
                       0.000000  0.000000  0.000000  0.000000  0.000000  0.000000
                       0.000000  0.000000  0.000000  0.000000  0.000000  0.000000
                       0.000000  0.000000  0.000000  0.000000  0.000000  0.000000
                       0.000000  0.000000  0.000000  0.000000  0.000000  0.000000
                       0.000000  0.000000  0.000000  0.000000  0.000000  0.000000
                       0.000000  0.000000  0.000000  0.000000  0.000000  0.000000
                       0.000000  0.000000  0.000000  0.000000  0.000000  0.000000
                       0.000000  0.000000  0.000000  0.000000  0.000000  0.000000
                       0.000000  0.000000  0.000000  0.000000  0.000000  0.000000
                       0.000000  0.000000  0.000000  0.000000  0.000000  0.000000
                       0.000000  0.000000  0.000000  0.000000  0.000000  0.000000
                       0.000000  0.000000  0.000000  0.000000  0.000000  0.000000
                       0.000000  0.000000  0.000000  0.000000  0.000000  0.000000
                       0.000000  0.000000  0.000000  0.000000  0.000000  0.000000
                       0.000000  0.000000  0.000000  0.000000  0.000000  0.000000
                       0.000000  0.000000  0.000000  0.000000  0.000000  0.000000
                       0.000000  0.000000  0.000000  0.000000  0.000000  0.000000
                       0.000000  0.000000  0.000000  0.000000  0.000000  0.000000
                       0.000000  0.000000  0.000000  0.000000  0.000000  0.000000
                       0.000000  0.000000  0.000000  0.000000  0.000000  0.000000
                       0.000000  0.000000  0.000000  0.000000  0.000000  0.000000
                       0.000000  0.000000  0.000000  0.000000  0.000000  0.000000
                       0.000000  0.000000  0.000000  0.000000  0.000000  0.000000
                       0.000000  0.000000  0.000000  0.000000  0.000000  0.000000
                       0.000000  0.000000  0.000000  0.000000  0.000000  0.000000
                       0.000000  0.000000  0.000000  0.000000  0.000000  0.000000
                       0.000000  0.000000  0.000000  0.000000  0.000000  0.000000
                       0.000000  0.000000  0.000000  0.000000  0.000000  0.000000
                       0.000000  0.000000  0.000000  0.000000  0.000000  0.000000
                       0.000000  0.000000  0.000000  0.000000  0.000000  0.000000
                       0.000000  0.000000  0.000000  0.000000  0.000000  0.000000
                       0.000000  0.000000  0.000000  0.000000  0.000000  0.000000
                       0.000000  0.000000  0.000000  0.000000  0.000000  0.000000
                       0.000000  0.000000  0.000000  0.000000  0.000000  0.000000
                       0.000000  0.000000  0.000000  0.000000  0.000000  0.000000
                       0.000000  0.000000  0.000000  0.000000  0.000000  0.000000
                       0.000000  0.000000  0.000000  0.000000  0.000000  0.000000
                       0.000000  0.000000  0.000000  0.000000  0.000000  0.000000
                       0.000000  0.000000  0.000000  0.000000  0.000000  0.000000
                       0.000000  0.000000  0.000000  0.000000  0.000000  0.000000
                       0.000000  0.000000  0.000000  0.000000  0.000000  0.000000
                       0.000000  0.000000  0.000000  0.000000  0.000000  0.000000
                       0.000000  0.000000  0.000000  0.000000  0.000000  0.000000
                       0.000000  0.000000  0.000000  0.000000  0.000000  0.000000
                       0.000000  0.000000  0.000000  0.000000  0.000000  0.000000
                       0.000000  0.000000  0.000000  0.000000  0.000000  0.000000
                       0.000000  0.000000  0.000000  0.000000  0.000000  0.000000
                       0.000000  0.000000  0.000000  0.000000  0.000000  0.000000
                       0.000000  0.000000  0.000000  0.000000  0.000000  0.000000
                       0.000000  0.000000  0.000000  0.000000  0.000000  0.000000
                       0.000000  0.000000  0.000000  0.000000  0.000000  0.000000
                       0.000000  0.000000  0.000000  0.000000  0.000000  0.000000
                       0.000000  0.000000  0.000000  0.000000  0.000000  0.000000
                       0.000000  0.000000  0.000000  0.000000  0.000000  0.000000
                       0.000000  0.000000  0.000000  0.000000  0.000000  0.000000
                       0.000000  0.000000  0.000000  0.000000  0.000000  0.000000
                       0.000000  0.000000  0.000000  0.000000  0.000000  0.000000
                       0.000000  0.000000  0.000000  0.000000  0.000000  0.000000
                       0.000000  0.000000  0.000000  0.000000  0.000000  0.000000
                       0.000000  0.000000  0.000000  0.000000  0.000000  0.000000
                       0.000000  0.000000  0.000000  0.000000  0.000000  0.000000
                       0.000000  0.000000  0.000000  0.000000  0.000000  0.000000
                       0.000000  0.000000  0.000000  0.000000  0.000000  0.000000
                       0.000000  0.000000  0.000000  0.000000  0.000000  0.000000
                       0.000000  0.000000  0.000000  0.000000  0.000000  0.000000
                       0.000000  0.000000  0.000000  0.000000  0.000000  0.000000
                       0.000000  0.000000  0.000000  0.000000  0.000000  0.000000
                       0.000000  0.000000  0.000000  0.000000  0.000000  0.000000
                       0.000000  0.000000  0.000000  0.000000  0.000000  0.000000
                       0.000000  0.000000  0.000000  0.000000  0.000000  0.000000
                       0.000000  0.000000  0.000000  0.000000  0.000000  0.000000
                       0.000000  0.000000  0.000000  0.000000  0.000000  0.000000
                       0.000000  0.000000  0.000000  0.000000  0.000000  0.000000
                       0.000000  0.000000  0.000000  0.000000  0.000000  0.000000
                       0.000000  0.000000  0.000000  0.000000  0.000000  0.000000
                       0.000000  0.000000  0.000000  0.000000  0.000000  0.000000
                       0.000000  0.000000  0.000000  0.000000  0.000000  0.000000
                       0.000000  0.000000  0.000000  0.000000  0.000000  0.000000
                       0.000000  0.000000  0.000000  0.000000  0.000000  0.000000
                       0.000000  0.000000  0.000000  0.000000  0.000000  0.000000
                       0.000000  0.000000  0.000000  0.000000  0.000000  0.000000
                       0.000000  0.000000  0.000000  0.000000  0.000000  0.000000
                       0.000000  0.000000  0.000000  0.000000  0.000000  0.000000
                       0.000000  0.000000  0.000000  0.000000  0.000000  0.000000
                       0.000000  0.000000  0.000000  0.000000  0.000000  0.000000
                       0.000000  0.000000  0.000000  0.000000  0.000000  0.000000
                       0.000000  0.000000  0.000000  0.000000  0.000000  0.000000
                       0.000000  0.000000  0.000000  0.000000  0.000000  0.000000
                       0.000000  0.000000  0.000000  0.000000  0.000000  0.000000
                       0.000000  0.000000  0.000000  0.000000  0.000000  0.000000
                       0.000000  0.000000  0.000000  0.000000  0.000000  0.000000
                       0.000000  0.000000  0.000000  0.000000  0.000000  0.000000
                       0.000000  0.000000  0.000000  0.000000  0.000000  0.000000
                       0.000000  0.000000  0.000000  0.000000  0.000000  0.000000
                       0.000000  0.000000  0.000000  0.000000  0.000000  0.000000
                       0.000000  0.000000  0.000000  0.000000  0.000000  0.000000
                       0.000000  0.000000  0.000000  0.000000  0.000000  0.000000
              occ4     2.000000  2.000000  2.000000  2.000000  2.000000  2.000000
                       2.000000  2.000000  2.000000  2.000000  2.000000  2.000000
                       2.000000  2.000000  2.000000  2.000000  2.000000  2.000000
                       2.000000  2.000000  2.000000  2.000000  2.000000  2.000000
                       2.000000  2.000000  2.000000  2.000000  2.000000  2.000000
                       2.000000  2.000000  2.000000  2.000000  2.000000  2.000000
                       2.000000  2.000000  2.000000  2.000000  2.000000  2.000000
                       2.000000  2.000000  2.000000  2.000000  2.000000  2.000000
                       2.000000  2.000000  2.000000  2.000000  0.000000  0.000000
                       0.000000  0.000000  0.000000  0.000000  0.000000  0.000000
                       0.000000  0.000000  0.000000  0.000000  0.000000  0.000000
                       0.000000  0.000000  0.000000  0.000000  0.000000  0.000000
                       0.000000  0.000000  0.000000  0.000000  0.000000  0.000000
                       0.000000  0.000000  0.000000  0.000000  0.000000  0.000000
                       0.000000  0.000000  0.000000  0.000000  0.000000  0.000000
                       0.000000  0.000000  0.000000  0.000000  0.000000  0.000000
                       0.000000  0.000000  0.000000  0.000000  0.000000  0.000000
                       0.000000  0.000000  0.000000  0.000000  0.000000  0.000000
                       0.000000  0.000000  0.000000  0.000000  0.000000  0.000000
                       0.000000  0.000000  0.000000  0.000000  0.000000  0.000000
                       0.000000  0.000000  0.000000  0.000000  0.000000  0.000000
                       0.000000  0.000000  0.000000  0.000000  0.000000  0.000000
                       0.000000  0.000000  0.000000  0.000000  0.000000  0.000000
                       0.000000  0.000000  0.000000  0.000000  0.000000  0.000000
                       0.000000  0.000000  0.000000  0.000000  0.000000  0.000000
                       0.000000  0.000000  0.000000  0.000000  0.000000  0.000000
                       0.000000  0.000000  0.000000  0.000000  0.000000  0.000000
                       0.000000  0.000000  0.000000  0.000000  0.000000  0.000000
                       0.000000  0.000000  0.000000  0.000000  0.000000  0.000000
                       0.000000  0.000000  0.000000  0.000000  0.000000  0.000000
                       0.000000  0.000000  0.000000  0.000000  0.000000  0.000000
                       0.000000  0.000000  0.000000  0.000000  0.000000  0.000000
                       0.000000  0.000000  0.000000  0.000000  0.000000  0.000000
                       0.000000  0.000000  0.000000  0.000000  0.000000  0.000000
                       0.000000  0.000000  0.000000  0.000000  0.000000  0.000000
                       0.000000  0.000000  0.000000  0.000000  0.000000  0.000000
                       0.000000  0.000000  0.000000  0.000000  0.000000  0.000000
                       0.000000  0.000000  0.000000  0.000000  0.000000  0.000000
                       0.000000  0.000000  0.000000  0.000000  0.000000  0.000000
                       0.000000  0.000000  0.000000  0.000000  0.000000  0.000000
                       0.000000  0.000000  0.000000  0.000000  0.000000  0.000000
                       0.000000  0.000000  0.000000  0.000000  0.000000  0.000000
                       0.000000  0.000000  0.000000  0.000000  0.000000  0.000000
                       0.000000  0.000000  0.000000  0.000000  0.000000  0.000000
                       0.000000  0.000000  0.000000  0.000000  0.000000  0.000000
                       0.000000  0.000000  0.000000  0.000000  0.000000  0.000000
                       0.000000  0.000000  0.000000  0.000000  0.000000  0.000000
                       0.000000  0.000000  0.000000  0.000000  0.000000  0.000000
                       0.000000  0.000000  0.000000  0.000000  0.000000  0.000000
                       0.000000  0.000000  0.000000  0.000000  0.000000  0.000000
                       0.000000  0.000000  0.000000  0.000000  0.000000  0.000000
                       0.000000  0.000000  0.000000  0.000000  0.000000  0.000000
                       0.000000  0.000000  0.000000  0.000000  0.000000  0.000000
                       0.000000  0.000000  0.000000  0.000000  0.000000  0.000000
                       0.000000  0.000000  0.000000  0.000000  0.000000  0.000000
                       0.000000  0.000000  0.000000  0.000000  0.000000  0.000000
                       0.000000  0.000000  0.000000  0.000000  0.000000  0.000000
                       0.000000  0.000000  0.000000  0.000000  0.000000  0.000000
                       0.000000  0.000000  0.000000  0.000000  0.000000  0.000000
                       0.000000  0.000000  0.000000  0.000000  0.000000  0.000000
                       0.000000  0.000000  0.000000  0.000000  0.000000  0.000000
                       0.000000  0.000000  0.000000  0.000000  0.000000  0.000000
                       0.000000  0.000000  0.000000  0.000000  0.000000  0.000000
                       0.000000  0.000000  0.000000  0.000000  0.000000  0.000000
                       0.000000  0.000000  0.000000  0.000000  0.000000  0.000000
                       0.000000  0.000000  0.000000  0.000000  0.000000  0.000000
                       0.000000  0.000000  0.000000  0.000000  0.000000  0.000000
                       0.000000  0.000000  0.000000  0.000000  0.000000  0.000000
                       0.000000  0.000000  0.000000  0.000000  0.000000  0.000000
                       0.000000  0.000000  0.000000  0.000000  0.000000  0.000000
                       0.000000  0.000000  0.000000  0.000000  0.000000  0.000000
                       0.000000  0.000000  0.000000  0.000000  0.000000  0.000000
                       0.000000  0.000000  0.000000  0.000000  0.000000  0.000000
                       0.000000  0.000000  0.000000  0.000000  0.000000  0.000000
                       0.000000  0.000000  0.000000  0.000000  0.000000  0.000000
                       0.000000  0.000000  0.000000  0.000000  0.000000  0.000000
                       0.000000  0.000000  0.000000  0.000000  0.000000  0.000000
                       0.000000  0.000000  0.000000  0.000000  0.000000  0.000000
                       0.000000  0.000000  0.000000  0.000000  0.000000  0.000000
                       0.000000  0.000000  0.000000  0.000000  0.000000  0.000000
                       0.000000  0.000000  0.000000  0.000000  0.000000  0.000000
                       0.000000  0.000000  0.000000  0.000000  0.000000  0.000000
                       0.000000  0.000000  0.000000  0.000000  0.000000  0.000000
                       0.000000  0.000000  0.000000  0.000000  0.000000  0.000000
                       0.000000  0.000000  0.000000  0.000000  0.000000  0.000000
                       0.000000  0.000000  0.000000  0.000000  0.000000  0.000000
                       0.000000  0.000000  0.000000  0.000000  0.000000  0.000000
                       0.000000  0.000000  0.000000  0.000000  0.000000  0.000000
                       0.000000  0.000000  0.000000  0.000000  0.000000  0.000000
                       0.000000  0.000000  0.000000  0.000000  0.000000  0.000000
                       0.000000  0.000000  0.000000  0.000000  0.000000  0.000000
                       0.000000  0.000000  0.000000  0.000000  0.000000  0.000000
                       0.000000  0.000000  0.000000  0.000000  0.000000  0.000000
                       0.000000  0.000000  0.000000  0.000000  0.000000  0.000000
                       0.000000  0.000000  0.000000  0.000000  0.000000  0.000000
                       0.000000  0.000000  0.000000  0.000000  0.000000  0.000000
                       0.000000  0.000000  0.000000  0.000000  0.000000  0.000000
                       0.000000  0.000000  0.000000  0.000000  0.000000  0.000000
                       0.000000  0.000000  0.000000  0.000000  0.000000  0.000000
                       0.000000  0.000000  0.000000  0.000000  0.000000  0.000000
                       0.000000  0.000000  0.000000  0.000000  0.000000  0.000000
                       0.000000  0.000000  0.000000  0.000000  0.000000  0.000000
                       0.000000  0.000000  0.000000  0.000000  0.000000  0.000000
                       0.000000  0.000000  0.000000  0.000000  0.000000  0.000000
                       0.000000  0.000000  0.000000  0.000000  0.000000  0.000000
                       0.000000  0.000000  0.000000  0.000000  0.000000  0.000000
                       0.000000  0.000000  0.000000  0.000000  0.000000  0.000000
                       0.000000  0.000000  0.000000  0.000000  0.000000  0.000000
                       0.000000  0.000000  0.000000  0.000000  0.000000  0.000000
                       0.000000  0.000000  0.000000  0.000000  0.000000  0.000000
                       0.000000  0.000000  0.000000  0.000000  0.000000  0.000000
                       0.000000  0.000000  0.000000  0.000000  0.000000  0.000000
                       0.000000  0.000000  0.000000  0.000000  0.000000  0.000000
                       0.000000  0.000000  0.000000  0.000000  0.000000  0.000000
                       0.000000  0.000000  0.000000  0.000000  0.000000  0.000000
                       0.000000  0.000000  0.000000  0.000000  0.000000  0.000000
                       0.000000  0.000000  0.000000  0.000000  0.000000  0.000000
                       0.000000  0.000000  0.000000  0.000000  0.000000  0.000000
                       0.000000  0.000000  0.000000  0.000000  0.000000  0.000000
                       0.000000  0.000000  0.000000  0.000000  0.000000  0.000000
                       0.000000  0.000000  0.000000  0.000000  0.000000  0.000000
                       0.000000  0.000000  0.000000  0.000000  0.000000  0.000000
                       0.000000  0.000000  0.000000  0.000000  0.000000  0.000000
                       0.000000  0.000000  0.000000  0.000000  0.000000  0.000000
                       0.000000  0.000000  0.000000  0.000000  0.000000  0.000000
                       0.000000  0.000000  0.000000  0.000000  0.000000  0.000000
                       0.000000  0.000000  0.000000  0.000000  0.000000  0.000000
                       0.000000  0.000000  0.000000  0.000000  0.000000  0.000000
                       0.000000  0.000000  0.000000  0.000000  0.000000  0.000000
                       0.000000  0.000000  0.000000  0.000000  0.000000  0.000000
                       0.000000  0.000000  0.000000  0.000000  0.000000  0.000000
                       0.000000  0.000000  0.000000  0.000000  0.000000  0.000000
                       0.000000  0.000000  0.000000  0.000000  0.000000  0.000000
                       0.000000  0.000000  0.000000  0.000000  0.000000  0.000000
                       0.000000  0.000000  0.000000  0.000000  0.000000  0.000000
                       0.000000  0.000000  0.000000  0.000000  0.000000  0.000000
                       0.000000  0.000000  0.000000  0.000000  0.000000  0.000000
                       0.000000  0.000000  0.000000  0.000000  0.000000  0.000000
                       0.000000  0.000000  0.000000  0.000000  0.000000  0.000000
                       0.000000  0.000000  0.000000  0.000000  0.000000  0.000000
                       0.000000  0.000000  0.000000  0.000000  0.000000  0.000000
                       0.000000  0.000000  0.000000  0.000000  0.000000  0.000000
                       0.000000  0.000000  0.000000  0.000000  0.000000  0.000000
                       0.000000  0.000000  0.000000  0.000000  0.000000  0.000000
                       0.000000  0.000000  0.000000  0.000000  0.000000  0.000000
                       0.000000  0.000000  0.000000  0.000000  0.000000  0.000000
                       0.000000  0.000000  0.000000  0.000000  0.000000  0.000000
                       0.000000  0.000000  0.000000  0.000000  0.000000  0.000000
                       0.000000  0.000000  0.000000  0.000000  0.000000  0.000000
                       0.000000  0.000000  0.000000  0.000000  0.000000  0.000000
                       0.000000  0.000000  0.000000  0.000000  0.000000  0.000000
                       0.000000  0.000000  0.000000  0.000000  0.000000  0.000000
                       0.000000  0.000000  0.000000  0.000000  0.000000  0.000000
                       0.000000  0.000000  0.000000  0.000000  0.000000  0.000000
                       0.000000  0.000000  0.000000  0.000000  0.000000  0.000000
                       0.000000  0.000000  0.000000  0.000000  0.000000  0.000000
                       0.000000  0.000000  0.000000  0.000000  0.000000  0.000000
                       0.000000  0.000000  0.000000  0.000000  0.000000  0.000000
                       0.000000  0.000000  0.000000  0.000000  0.000000  0.000000
                       0.000000  0.000000  0.000000  0.000000  0.000000  0.000000
                       0.000000  0.000000  0.000000  0.000000  0.000000  0.000000
                       0.000000  0.000000  0.000000  0.000000  0.000000  0.000000
                       0.000000  0.000000  0.000000  0.000000  0.000000  0.000000
                       0.000000  0.000000  0.000000  0.000000  0.000000  0.000000
                       0.000000  0.000000  0.000000  0.000000  0.000000  0.000000
                       0.000000  0.000000  0.000000  0.000000  0.000000  0.000000
                       0.000000  0.000000  0.000000  0.000000  0.000000  0.000000
                       0.000000  0.000000  0.000000  0.000000  0.000000  0.000000
                       0.000000  0.000000  0.000000  0.000000  0.000000  0.000000
                       0.000000  0.000000  0.000000  0.000000  0.000000  0.000000
                       0.000000  0.000000  0.000000  0.000000  0.000000  0.000000
                       0.000000  0.000000  0.000000  0.000000  0.000000  0.000000
                       0.000000  0.000000  0.000000  0.000000  0.000000  0.000000
                       0.000000  0.000000  0.000000  0.000000  0.000000  0.000000
                       0.000000  0.000000  0.000000  0.000000  0.000000  0.000000
                       0.000000  0.000000  0.000000  0.000000  0.000000  0.000000
                       0.000000  0.000000  0.000000  0.000000  0.000000  0.000000
                       0.000000  0.000000  0.000000  0.000000  0.000000  0.000000
                       0.000000  0.000000  0.000000  0.000000  0.000000  0.000000
                       0.000000  0.000000  0.000000  0.000000  0.000000  0.000000
                       0.000000  0.000000  0.000000  0.000000  0.000000  0.000000
                       0.000000  0.000000  0.000000  0.000000  0.000000  0.000000
                       0.000000  0.000000  0.000000  0.000000  0.000000  0.000000
                       0.000000  0.000000  0.000000  0.000000  0.000000  0.000000
                       0.000000  0.000000  0.000000  0.000000  0.000000  0.000000
                       0.000000  0.000000  0.000000  0.000000  0.000000  0.000000
                       0.000000  0.000000  0.000000  0.000000  0.000000  0.000000
                       0.000000  0.000000  0.000000  0.000000  0.000000  0.000000
                       0.000000  0.000000  0.000000  0.000000  0.000000  0.000000
                       0.000000  0.000000  0.000000  0.000000  0.000000  0.000000
                       0.000000  0.000000  0.000000  0.000000  0.000000  0.000000
                       0.000000  0.000000  0.000000  0.000000  0.000000  0.000000
                       0.000000  0.000000  0.000000  0.000000  0.000000  0.000000
                       0.000000  0.000000  0.000000  0.000000  0.000000  0.000000
                       0.000000  0.000000  0.000000  0.000000  0.000000  0.000000
                       0.000000  0.000000  0.000000  0.000000  0.000000  0.000000
                       0.000000  0.000000  0.000000  0.000000  0.000000  0.000000
                       0.000000  0.000000  0.000000  0.000000  0.000000  0.000000
                       0.000000  0.000000  0.000000  0.000000  0.000000  0.000000
                       0.000000  0.000000  0.000000  0.000000  0.000000  0.000000
                       0.000000  0.000000  0.000000  0.000000  0.000000  0.000000
                       0.000000  0.000000  0.000000  0.000000  0.000000  0.000000
                       0.000000  0.000000  0.000000  0.000000  0.000000  0.000000
                       0.000000  0.000000  0.000000  0.000000  0.000000  0.000000
                       0.000000  0.000000  0.000000  0.000000  0.000000  0.000000
                       0.000000  0.000000  0.000000  0.000000  0.000000  0.000000
                       0.000000  0.000000  0.000000  0.000000  0.000000  0.000000
                       0.000000  0.000000  0.000000  0.000000  0.000000  0.000000
                       0.000000  0.000000  0.000000  0.000000  0.000000  0.000000
                       0.000000  0.000000  0.000000  0.000000  0.000000  0.000000
                       0.000000  0.000000  0.000000  0.000000  0.000000  0.000000
                       0.000000  0.000000  0.000000  0.000000  0.000000  0.000000
                       0.000000  0.000000  0.000000  0.000000  0.000000  0.000000
        optdriver3          3
        optdriver4          4
           ppmfrq3     6.13713734E-01 Hartree
           ppmfrq4     0.00000000E+00 Hartree
          spgroup          57
           symrel      1  0  0   0  1  0   0  0  1      -1  0  0   0 -1  0   0  0 -1
                      -1  0  0   0  1  0   0  0 -1       1  0  0   0 -1  0   0  0  1
                      -1  0  0   0 -1  0   0  0  1       1  0  0   0  1  0   0  0 -1
                       1  0  0   0 -1  0   0  0 -1      -1  0  0   0  1  0   0  0  1
            tnons      0.0000000  0.0000000  0.0000000    -0.0000000  0.0000000  0.0000000
                       0.5000000  0.5000000  0.0000000     0.5000000  0.5000000  0.0000000
                      -0.0000000  0.5000000  0.0000000     0.0000000  0.5000000  0.0000000
                       0.5000000  0.0000000  0.0000000     0.5000000  0.0000000  0.0000000
           toldfe      1.00000000E-08 Hartree
           tolsym      1.00000000E-04
            typat      1  1  1  1  1  1  1  1  1  1  1  1  1  1  1  1  1  1  1  1
                       1  1  1  1  2  2  2  2  2  2  2  2
          usekden           1
          vcutgeo      1.0000000  1.0000000  0.0000000
              wtk        0.02778    0.05556    0.05556    0.02778    0.05556    0.11111
                         0.11111    0.05556    0.05556    0.11111    0.11111    0.05556
                         0.02778    0.05556    0.05556    0.02778
           xangst      1.8274779776E+00  1.8068254512E+00  1.8390210999E+01
                       2.3906307830E+00  2.5813283935E+00  2.4609789001E+01
                       3.9365323579E+00  2.5813283935E+00  2.4609789001E+01
                       2.8157640269E-01  1.8068254512E+00  1.8390210999E+01
                       2.8157640269E-01  4.0009023735E+00  2.4609789001E+01
                       3.9365323579E+00  3.8725147116E-01  1.8390210999E+01
                       2.3906307830E+00  3.8725147116E-01  1.8390210999E+01
                       1.8274779776E+00  4.0009023735E+00  2.4609789001E+01
                       1.8453529137E+00  1.8292891124E+00  2.0872377757E+01
                       2.3727558469E+00  2.5588647323E+00  2.2127622243E+01
                       3.9544072941E+00  2.5588647323E+00  2.2127622243E+01
                       2.6370146656E-01  1.8292891124E+00  2.0872377757E+01
                       2.6370146656E-01  4.0233660347E+00  2.2127622243E+01
                       3.9544072941E+00  3.6478780997E-01  2.0872377757E+01
                       2.3727558469E+00  3.6478780997E-01  2.0872377757E+01
                       1.8453529137E+00  4.0233660347E+00  2.2127622243E+01
                       1.8439494302E+00  1.8248219548E+00  2.3386652101E+01
                       2.3741593304E+00  2.5633318899E+00  1.9613347899E+01
                       3.9530038105E+00  2.5633318899E+00  1.9613347899E+01
                       2.6510495009E-01  1.8248219548E+00  2.3386652101E+01
                       2.6510495009E-01  4.0188988771E+00  1.9613347899E+01
                       3.9530038105E+00  3.6925496756E-01  2.3386652101E+01
                       2.3741593304E+00  3.6925496756E-01  2.3386652101E+01
                       1.8439494302E+00  4.0188988771E+00  1.9613347899E+01
                       5.5135131688E-02  4.2776651549E+00  1.7473225849E+01
                       4.1629736289E+00  1.1048868981E-01  2.5526774151E+01
                       2.1641895120E+00  1.1048868981E-01  2.5526774151E+01
                       2.0539192486E+00  4.2776651549E+00  1.7473225849E+01
                       2.0539192486E+00  2.0835882325E+00  2.5526774151E+01
                       2.1641895120E+00  2.3045656121E+00  1.7473225849E+01
                       4.1629736289E+00  2.3045656121E+00  1.7473225849E+01
                       5.5135131688E-02  2.0835882325E+00  2.5526774151E+01
            xcart      3.4534328916E+00  3.4144052727E+00  3.4752462313E+01
                       4.5176374647E+00  4.8780037227E+00  4.6505761401E+01
                       7.4389680697E+00  4.8780037227E+00  4.6505761401E+01
                       5.3210228657E-01  3.4144052727E+00  3.4752462313E+01
                       5.3210228657E-01  7.5606097704E+00  4.6505761401E+01
                       7.4389680697E+00  7.3179922505E-01  3.4752462313E+01
                       4.5176374647E+00  7.3179922505E-01  3.4752462313E+01
                       3.4534328916E+00  7.5606097704E+00  4.6505761401E+01
                       3.4872116255E+00  3.4568554402E+00  3.9443077703E+01
                       4.4838587308E+00  4.8355535552E+00  4.1815146011E+01
                       7.4727468037E+00  4.8355535552E+00  4.1815146011E+01
                       4.9832355264E-01  3.4568554402E+00  3.9443077703E+01
                       4.9832355264E-01  7.6030599379E+00  4.1815146011E+01
                       7.4727468037E+00  6.8934905746E-01  3.9443077703E+01
                       4.4838587308E+00  6.8934905746E-01  3.9443077703E+01
                       3.4872116255E+00  7.6030599379E+00  4.1815146011E+01
                       3.4845594260E+00  3.4484137358E+00  4.4194367636E+01
                       4.4865109303E+00  4.8439952596E+00  3.7063856078E+01
                       7.4700946042E+00  4.8439952596E+00  3.7063856078E+01
                       5.0097575214E-01  3.4484137358E+00  4.4194367636E+01
                       5.0097575214E-01  7.5946182335E+00  3.7063856078E+01
                       7.4700946042E+00  6.9779076190E-01  4.4194367636E+01
                       4.4865109303E+00  6.9779076190E-01  4.4194367636E+01
                       3.4845594260E+00  7.5946182335E+00  3.7063856078E+01
                       1.0419029919E-01  8.0836156309E+00  3.3019611513E+01
                       7.8668800571E+00  2.0879336453E-01  4.8238612201E+01
                       4.0897254773E+00  2.0879336453E-01  4.8238612201E+01
                       3.8813448790E+00  8.0836156309E+00  3.3019611513E+01
                       3.8813448790E+00  3.9374111332E+00  4.8238612201E+01
                       4.0897254773E+00  4.3549978622E+00  3.3019611513E+01
                       7.8668800571E+00  4.3549978622E+00  3.3019611513E+01
                       1.0419029919E-01  3.9374111332E+00  4.8238612201E+01
             xred      4.3324581734E-01  4.1175070773E-01  4.2767932555E-01
                       5.6675418266E-01  5.8824929227E-01  5.7232067445E-01
                       9.3324581734E-01  5.8824929227E-01  5.7232067445E-01
                       6.6754182661E-02  4.1175070773E-01  4.2767932555E-01
                       6.6754182661E-02  9.1175070773E-01  5.7232067445E-01
                       9.3324581734E-01  8.8249292269E-02  4.2767932555E-01
                       5.6675418266E-01  8.8249292269E-02  4.2767932555E-01
                       4.3324581734E-01  9.1175070773E-01  5.7232067445E-01
                       4.3748348335E-01  4.1686986763E-01  4.8540413389E-01
                       5.6251651665E-01  5.8313013237E-01  5.1459586611E-01
                       9.3748348335E-01  5.8313013237E-01  5.1459586611E-01
                       6.2516516649E-02  4.1686986763E-01  4.8540413389E-01
                       6.2516516649E-02  9.1686986763E-01  5.1459586611E-01
                       9.3748348335E-01  8.3130132371E-02  4.8540413389E-01
                       5.6251651665E-01  8.3130132371E-02  4.8540413389E-01
                       4.3748348335E-01  9.1686986763E-01  5.1459586611E-01
                       4.3715075520E-01  4.1585186376E-01  5.4387563026E-01
                       5.6284924480E-01  5.8414813624E-01  4.5612436974E-01
                       9.3715075520E-01  5.8414813624E-01  4.5612436974E-01
                       6.2849244800E-02  4.1585186376E-01  5.4387563026E-01
                       6.2849244800E-02  9.1585186376E-01  4.5612436974E-01
                       9.3715075520E-01  8.4148136240E-02  5.4387563026E-01
                       5.6284924480E-01  8.4148136240E-02  5.4387563026E-01
                       4.3715075520E-01  9.1585186376E-01  4.5612436974E-01
                       1.3071055019E-02  9.7482114490E-01  4.0635408952E-01
                       9.8692894498E-01  2.5178855100E-02  5.9364591048E-01
                       5.1307105502E-01  2.5178855100E-02  5.9364591048E-01
                       4.8692894498E-01  9.7482114490E-01  4.0635408952E-01
                       4.8692894498E-01  4.7482114490E-01  5.9364591048E-01
                       5.1307105502E-01  5.2517885510E-01  4.0635408952E-01
                       9.8692894498E-01  5.2517885510E-01  4.0635408952E-01
                       1.3071055019E-02  4.7482114490E-01  5.9364591048E-01
            znucl        6.00000    1.00000
 
================================================================================
 
 chkinp: Checking input parameters for consistency, jdtset=   3.
 
 chkinp: Checking input parameters for consistency, jdtset=   4.
 
================================================================================
== DATASET  3 ==================================================================
-   mpi_nproc: 96, omp_nthreads: -1 (-1 if OMP is not activated)
 

--- !DatasetInfo
iteration_state: {dtset: 3, }
dimensions: {natom: 32, nkpt: 16, mband: 852, nsppol: 1, nspinor: 1, nspden: 1, mpw: 90853, }
cutoff_energies: {ecut:  50.0, pawecutdg:  -1.0, }
electrons: {nelect:   1.04000000E+02, charge:   0.00000000E+00, occopt:   1.00000000E+00, tsmear:   1.00000000E-02, }
meta: {optdriver: 3, gwcalctyp: 0, }
...

 mkfilename : getwfk/=0, take file _WFK from output of DATASET   2.
 
 SCREENING: Calculation of the susceptibility and dielectric matrices 
 
 Based on a program developped by R.W. Godby, V. Olevano, G. Onida, and L. Reining.
 Incorporated in ABINIT by V. Olevano, G.-M. Rignanese, and M. Torrent.
.Using single precision arithmetic ; gwpc =  4
 
 Real(R)+Recip(G) space primitive vectors, cartesian coordinates (Bohr,Bohr^-1):
 R(1)=  7.9710704  0.0000000  0.0000000  G(1)=  0.1254537  0.0000000  0.0000000
 R(2)=  0.0000000  8.2924090  0.0000000  G(2)=  0.0000000  0.1205922  0.0000000
 R(3)=  0.0000000  0.0000000 81.2582237  G(3)=  0.0000000  0.0000000  0.0123064
 Unit cell volume ucvol=  5.3711178E+03 bohr^3
 Angles (23,13,12)=  9.00000000E+01  9.00000000E+01  9.00000000E+01 degrees
 
--- Pseudopotential description ------------------------------------------------
- pspini: atom type   1  psp file is ../6c.4.hgh
- pspatm: opening atomic psp file    ../6c.4.hgh
- Hartwigsen-Goedecker-Hutter psp for C,  from PRB58, 3641 (1998)
-  6.00000   4.00000     10605                znucl, zion, pspdat
    3    1    1    0      2001   0.00000      pspcod,pspxc,lmax,lloc,mmax,r2well
 rloc=   0.3488300
 cc1 =  -8.5137710; cc2 =   1.2284320; cc3 =   0.0000000; cc4 =   0.0000000
 rrs =   0.3045530; h11s=   9.5228420; h22s=   0.0000000; h33s=   0.0000000
 rrp =   0.2326770; h11p=   0.0000000; h22p=   0.0000000; h33p=   0.0000000
                    k11p=   0.0041040; k22p=   0.0000000; k33p=   0.0000000
-  Local part computed in reciprocal space.
 
 pspatm : COMMENT -
  the projectors are not normalized,
  so that the KB energies are not consistent with 
  definition in PRB44, 8503 (1991). 
  However, this does not influence the results obtained hereafter.
  pspatm : epsatm=   -0.16969744
         --- l  ekb(1:nproj) -->
             0    0.953587
 pspatm: atomic psp has been read  and splines computed
 
- pspini: atom type   2  psp file is ../1h.1.hgh
- pspatm: opening atomic psp file    ../1h.1.hgh
- Hartwigsen-Goedecker-Hutter psp for H,  from PRB58, 3641 (1998)
-  1.00000   1.00000     10605                znucl, zion, pspdat
    3    1    0    0      2001   0.00000      pspcod,pspxc,lmax,lloc,mmax,r2well
 rloc=   0.2000000
 cc1 =  -4.1802370; cc2 =   0.7250750; cc3 =   0.0000000; cc4 =   0.0000000
 rrs =   0.0000000; h11s=   0.0000000; h22s=   0.0000000; h33s=   0.0000000
-  Local part computed in reciprocal space.
 
 pspatm : COMMENT -
  the projectors are not normalized,
  so that the KB energies are not consistent with 
  definition in PRB44, 8503 (1991). 
  However, this does not influence the results obtained hereafter.
  pspatm : epsatm=   -0.00129784
         --- l  ekb(1:nproj) -->
 pspatm: atomic psp has been read  and splines computed
 
  -4.24644621E+02                                ecore*ucvol(ha*bohr**3)
--------------------------------------------------------------------------------
 
 ==== K-mesh for the wavefunctions ====
 Number of points in the irreducible wedge :    16
 Reduced coordinates and weights : 
 
     1)     0.00000000E+00  0.00000000E+00  0.00000000E+00       0.02778
     2)     1.66666667E-01  0.00000000E+00  0.00000000E+00       0.05556
     3)     3.33333333E-01  0.00000000E+00  0.00000000E+00       0.05556
     4)     5.00000000E-01  0.00000000E+00  0.00000000E+00       0.02778
     5)     0.00000000E+00  1.66666667E-01  0.00000000E+00       0.05556
     6)     1.66666667E-01  1.66666667E-01  0.00000000E+00       0.11111
     7)     3.33333333E-01  1.66666667E-01  0.00000000E+00       0.11111
     8)     5.00000000E-01  1.66666667E-01  0.00000000E+00       0.05556
     9)     0.00000000E+00  3.33333333E-01  0.00000000E+00       0.05556
    10)     1.66666667E-01  3.33333333E-01  0.00000000E+00       0.11111
    11)     3.33333333E-01  3.33333333E-01  0.00000000E+00       0.11111
    12)     5.00000000E-01  3.33333333E-01  0.00000000E+00       0.05556
    13)     0.00000000E+00  5.00000000E-01  0.00000000E+00       0.02778
    14)     1.66666667E-01  5.00000000E-01  0.00000000E+00       0.05556
    15)     3.33333333E-01  5.00000000E-01  0.00000000E+00       0.05556
    16)     5.00000000E-01  5.00000000E-01  0.00000000E+00       0.02778
 
 Together with  8 symmetry operations and time-reversal symmetry 
 yields    36 points in the full Brillouin Zone.
 
 
 ==== Q-mesh for the screening function ====
 Number of points in the irreducible wedge :    16
 Reduced coordinates and weights : 
 
     1)     0.00000000E+00  0.00000000E+00  0.00000000E+00       0.02778
     2)     1.66666667E-01  0.00000000E+00  0.00000000E+00       0.05556
     3)     3.33333333E-01  0.00000000E+00  0.00000000E+00       0.05556
     4)     5.00000000E-01  0.00000000E+00  0.00000000E+00       0.02778
     5)     0.00000000E+00  1.66666667E-01  0.00000000E+00       0.05556
     6)     1.66666667E-01  1.66666667E-01  0.00000000E+00       0.11111
     7)     3.33333333E-01  1.66666667E-01  0.00000000E+00       0.11111
     8)     5.00000000E-01  1.66666667E-01  0.00000000E+00       0.05556
     9)     0.00000000E+00  3.33333333E-01  0.00000000E+00       0.05556
    10)     1.66666667E-01  3.33333333E-01  0.00000000E+00       0.11111
    11)     3.33333333E-01  3.33333333E-01  0.00000000E+00       0.11111
    12)     5.00000000E-01  3.33333333E-01  0.00000000E+00       0.05556
    13)     0.00000000E+00  5.00000000E-01  0.00000000E+00       0.02778
    14)     1.66666667E-01  5.00000000E-01  0.00000000E+00       0.05556
    15)     3.33333333E-01  5.00000000E-01  0.00000000E+00       0.05556
    16)     5.00000000E-01  5.00000000E-01  0.00000000E+00       0.02778
 
 Together with  8 symmetry operations and time-reversal symmetry 
 yields    36 points in the full Brillouin Zone.
 
 
 setmesh: FFT mesh size selected  =    36x   36x  360
          total number of points  =       466560
 
 
- screening: taking advantage of time-reversal symmetry 
- Maximum band index for partially occupied states nbvw = 52
- Remaining bands to be divided among processors   nbcw = 800
- Number of bands treated by each node ~8
 
 Number of electrons calculated from density =  104.0000; Expected =  104.0000
 average of density, n =  0.019363
 r_s =    2.3102
 omega_plasma =   13.4227 [eV]
 
 
 calculating chi0 at frequencies [eV] :
  1    0.000000E+00    0.000000E+00
  2    0.000000E+00    1.670000E+01
 
 
--------------------------------------------------------------------------------
  q-point number  1        q = ( 0.000000, 0.000000, 0.000000) [r.l.u.]
--------------------------------------------------------------------------------
  chi0(G,G') at the    1 th omega   0.0000   0.0000 [eV]
       1       2       3       4       5       6       7       8       9
    1  -0.000   0.000  -0.000  -0.000   0.000   0.000  -0.000  -0.000   0.000
        0.000  -0.000  -0.000   0.000   0.000  -0.000  -0.000   0.000   0.000
 
    2   0.000  -2.332   1.839   4.298  -2.561  -5.155   2.024   4.591  -0.600
        0.000   0.000   0.000   0.000  -0.000   0.000   0.000  -0.000  -0.000
 
  chi0(G,G') at the    2 th omega   0.0000  16.7000 [eV]
       1       2       3       4       5       6       7       8       9
    1  -0.000   0.000  -0.000  -0.000   0.000   0.000  -0.000  -0.000   0.000
        0.000  -0.000  -0.000   0.000   0.000  -0.000  -0.000   0.000   0.000
 
    2   0.000  -0.796   0.619   1.484  -0.857  -1.807   0.668   1.641  -0.172
        0.000   0.000   0.000   0.000  -0.000   0.000   0.000   0.000  -0.000
 
 For q-point:  0.000010 0.000020 0.000030
  dielectric constant =   1.0006
  dielectric constant without local fields =   1.0007
 
  Average fulfillment of the sum rule on Im[epsilon] for q-point    1 :    173.92  [%]
  Heads and wings of the symmetrical epsilon^-1(G,G') 
 
   Upper and lower wings at the    1 th omega   0.0000   0.0000 [eV]
       1       2       3       4       5       6       7       8       9
      0.999   0.001  -0.001  -0.000   0.000   0.000  -0.000  -0.000   0.000
     -0.000  -0.000  -0.000   0.000   0.000  -0.000  -0.000  -0.000   0.000
       1       2       3       4       5       6       7       8       9
      0.999   0.001  -0.001  -0.000   0.000   0.000  -0.000  -0.000   0.000
     -0.000   0.000   0.000  -0.000  -0.000   0.000   0.000   0.000  -0.000
 
 
   Upper and lower wings at the    2 th omega   0.0000  16.7000 [eV]
       1       2       3       4       5       6       7       8       9
      1.000   0.001  -0.001  -0.000   0.000   0.000  -0.000  -0.000   0.000
     -0.000  -0.000  -0.000   0.000   0.000  -0.000  -0.000  -0.000   0.000
       1       2       3       4       5       6       7       8       9
      1.000   0.001  -0.001  -0.000   0.000   0.000  -0.000  -0.000   0.000
     -0.000   0.000   0.000  -0.000  -0.000   0.000   0.000   0.000  -0.000
 
 
 
 
--------------------------------------------------------------------------------
  q-point number  2        q = ( 0.166667, 0.000000, 0.000000) [r.l.u.]
--------------------------------------------------------------------------------
  chi0(G,G') at the    1 th omega   0.0000   0.0000 [eV]
       1       2       3       4       5       6       7       8       9
    1  -6.924   6.515   6.515  -5.381  -5.381   3.777   3.777  -2.046  -2.046
        0.000   0.000  -0.000  -0.000  -0.000  -0.000  -0.000   0.000   0.000
 
    2   6.515  -9.102  -3.669  10.524   1.406 -10.178  -0.197   8.025   0.020
       -0.000   0.000   0.000   0.000  -0.000  -0.000   0.000   0.000  -0.000
 
  chi0(G,G') at the    2 th omega   0.0000  16.7000 [eV]
       1       2       3       4       5       6       7       8       9
    1  -2.299   2.161   2.161  -1.779  -1.779   1.237   1.237  -0.650  -0.650
        0.000   0.000  -0.000  -0.000  -0.000  -0.000  -0.000   0.000  -0.000
 
    2   2.161  -3.068  -1.181   3.595   0.411  -3.524  -0.009   2.820  -0.028
       -0.000   0.000   0.000   0.000  -0.000  -0.000   0.000   0.000  -0.000
 
  Average fulfillment of the sum rule on Im[epsilon] for q-point    2 :     85.57  [%]
 
 
--------------------------------------------------------------------------------
  q-point number  3        q = ( 0.333333, 0.000000, 0.000000) [r.l.u.]
--------------------------------------------------------------------------------
  chi0(G,G') at the    1 th omega   0.0000   0.0000 [eV]
       1       2       3       4       5       6       7       8       9
    1 -23.325  21.942  21.942 -18.112 -18.112  12.691  12.691  -6.827  -6.827
        0.000   0.000  -0.000  -0.000  -0.000   0.000  -0.000  -0.000  -0.000
 
    2  21.942 -25.200 -16.645  25.388  10.678 -22.213  -5.298  16.277   1.309
       -0.000   0.000   0.000   0.000  -0.000  -0.000   0.000   0.000  -0.000
 
  chi0(G,G') at the    2 th omega   0.0000  16.7000 [eV]
       1       2       3       4       5       6       7       8       9
    1  -8.633   8.114   8.114  -6.675  -6.675   4.635   4.635  -2.428  -2.428
        0.000   0.000  -0.000  -0.000  -0.000  -0.000  -0.000  -0.000  -0.000
 
    2   8.114  -9.334  -6.132   9.419   3.889  -8.260  -1.856   6.066   0.349
       -0.000   0.000   0.000   0.000  -0.000  -0.000   0.000   0.000  -0.000
 
  Average fulfillment of the sum rule on Im[epsilon] for q-point    3 :     81.04  [%]
 
 
--------------------------------------------------------------------------------
  q-point number  4        q = ( 0.500000, 0.000000, 0.000000) [r.l.u.]
--------------------------------------------------------------------------------
  chi0(G,G') at the    1 th omega   0.0000   0.0000 [eV]
       1       2       3       4       5       6       7       8       9
    1 -41.863  39.369  39.369 -32.457 -32.457  22.671  22.671 -12.079 -12.079
        0.000   0.000  -0.000  -0.000  -0.000   0.000  -0.000   0.000  -0.000
 
    2  39.369 -43.468 -31.203  42.313  20.959 -35.946 -10.797  25.694   2.472
       -0.000   0.000   0.000   0.000  -0.000  -0.000   0.000   0.000  -0.000
 
  chi0(G,G') at the    2 th omega   0.0000  16.7000 [eV]
       1       2       3       4       5       6       7       8       9
    1 -17.644  16.579  16.579 -13.626 -13.626   9.444   9.444  -4.922  -4.922
        0.000   0.000  -0.000   0.000  -0.000  -0.000  -0.000  -0.000  -0.000
 
    2  16.579 -18.254 -13.155  17.714   8.801 -15.001  -4.437  10.678   0.841
       -0.000   0.000   0.000   0.000  -0.000  -0.000   0.000   0.000  -0.000
 
  Average fulfillment of the sum rule on Im[epsilon] for q-point    4 :     79.77  [%]
 
 
--------------------------------------------------------------------------------
  q-point number  5        q = ( 0.000000, 0.166667, 0.000000) [r.l.u.]
--------------------------------------------------------------------------------
  chi0(G,G') at the    1 th omega   0.0000   0.0000 [eV]
       1       2       3       4       5       6       7       8       9
    1  -6.182   5.803   5.803  -4.758  -4.758   3.288   3.288  -1.718  -1.718
        0.000  -0.000  -0.000   0.000  -0.000  -0.000  -0.000   0.000   0.000
 
    2   5.803  -8.314  -3.085   9.729   0.980  -9.451   0.066   7.434  -0.095
        0.000   0.000   0.000   0.000  -0.000   0.000   0.000   0.000  -0.000
 
  chi0(G,G') at the    2 th omega   0.0000  16.7000 [eV]
       1       2       3       4       5       6       7       8       9
    1  -2.119   1.991   1.991  -1.635  -1.635   1.133   1.133  -0.591  -0.591
        0.000  -0.000  -0.000  -0.000  -0.000  -0.000  -0.000   0.000   0.000
 
    2   1.991  -2.887  -1.039   3.422   0.309  -3.377   0.047   2.711  -0.043
        0.000   0.000   0.000   0.000  -0.000   0.000   0.000   0.000  -0.000
 
  Average fulfillment of the sum rule on Im[epsilon] for q-point    5 :     85.86  [%]
 
 
--------------------------------------------------------------------------------
  q-point number  6        q = ( 0.166667, 0.166667, 0.000000) [r.l.u.]
--------------------------------------------------------------------------------
  chi0(G,G') at the    1 th omega   0.0000   0.0000 [eV]
       1       2       3       4       5       6       7       8       9
    1 -12.682  11.917  11.917  -9.803  -9.803   6.823   6.823  -3.621  -3.621
        0.000   0.000  -0.000  -0.000  -0.000   0.000  -0.000  -0.000   0.000
 
    2  11.917 -14.672  -8.247  15.579   4.688 -14.169  -1.997  10.654   0.461
       -0.000   0.000   0.000   0.000  -0.000  -0.000   0.000   0.000  -0.000
 
  chi0(G,G') at the    2 th omega   0.0000  16.7000 [eV]
       1       2       3       4       5       6       7       8       9
    1  -4.346   4.084   4.084  -3.357  -3.357   2.330   2.330  -1.218  -1.218
        0.000   0.000  -0.000  -0.000  -0.000   0.000  -0.000   0.000  -0.000
 
    2   4.084  -5.089  -2.781   5.468   1.535  -5.040  -0.606   3.852   0.094
       -0.000   0.000   0.000   0.000  -0.000  -0.000   0.000   0.000  -0.000
 
  Average fulfillment of the sum rule on Im[epsilon] for q-point    6 :     83.36  [%]
 
 
--------------------------------------------------------------------------------
  q-point number  7        q = ( 0.333333, 0.166667, 0.000000) [r.l.u.]
--------------------------------------------------------------------------------
  chi0(G,G') at the    1 th omega   0.0000   0.0000 [eV]
       1       2       3       4       5       6       7       8       9
    1 -28.260  26.569  26.569 -21.887 -21.887  15.271  15.271  -8.135  -8.135
        0.000   0.000  -0.000  -0.000  -0.000   0.000  -0.000  -0.000  -0.000
 
    2  26.569 -29.969 -20.559  29.705  13.468 -25.602  -6.806  18.485   1.646
       -0.000   0.000   0.000   0.000  -0.000  -0.000   0.000   0.000  -0.000
 
  chi0(G,G') at the    2 th omega   0.0000  16.7000 [eV]
       1       2       3       4       5       6       7       8       9
    1 -10.493   9.860   9.860  -8.106  -8.106   5.623   5.623  -2.938  -2.938
        0.000   0.000  -0.000  -0.000  -0.000   0.000  -0.000  -0.000  -0.000
 
    2   9.860 -11.169  -7.583  11.120   4.905  -9.636  -2.391   7.001   0.453
       -0.000   0.000   0.000   0.000  -0.000  -0.000   0.000   0.000  -0.000
 
  Average fulfillment of the sum rule on Im[epsilon] for q-point    7 :     80.45  [%]
 
 
--------------------------------------------------------------------------------
  q-point number  8        q = ( 0.500000, 0.166667, 0.000000) [r.l.u.]
--------------------------------------------------------------------------------
  chi0(G,G') at the    1 th omega   0.0000   0.0000 [eV]
       1       2       3       4       5       6       7       8       9
    1 -46.083  43.322  43.322 -35.674 -35.674  24.856  24.856 -13.171 -13.171
        0.000   0.000  -0.000  -0.000  -0.000   0.000  -0.000  -0.000  -0.000
 
    2  43.322 -47.536 -34.547  45.984  23.336 -38.812 -12.072  27.541   2.742
       -0.000   0.000   0.000   0.000  -0.000  -0.000   0.000   0.000  -0.000
 
  chi0(G,G') at the    2 th omega   0.0000  16.7000 [eV]
       1       2       3       4       5       6       7       8       9
    1 -19.258  18.093  18.093 -14.866 -14.866  10.296  10.296  -5.358  -5.358
        0.000   0.000  -0.000  -0.000  -0.000   0.000  -0.000  -0.000  -0.000
 
    2  18.093 -19.847 -14.412  19.190   9.677 -16.193  -4.894  11.486   0.924
       -0.000   0.000   0.000   0.000  -0.000  -0.000   0.000   0.000  -0.000
 
  Average fulfillment of the sum rule on Im[epsilon] for q-point    8 :     79.50  [%]
 
 
--------------------------------------------------------------------------------
  q-point number  9        q = ( 0.000000, 0.333333, 0.000000) [r.l.u.]
--------------------------------------------------------------------------------
  chi0(G,G') at the    1 th omega   0.0000   0.0000 [eV]
       1       2       3       4       5       6       7       8       9
    1 -21.525  20.210  20.210 -16.577 -16.577  11.465  11.465  -5.994  -5.994
        0.000   0.000  -0.000  -0.000  -0.000  -0.000  -0.000  -0.000  -0.000
 
    2  20.210 -23.256 -15.232  23.389   9.641 -20.345  -4.648  14.730   1.021
       -0.000   0.000   0.000   0.000  -0.000   0.000   0.000   0.000  -0.000
 
  chi0(G,G') at the    2 th omega   0.0000  16.7000 [eV]
       1       2       3       4       5       6       7       8       9
    1  -8.025   7.538   7.538  -6.190  -6.190   4.284   4.284  -2.229  -2.229
        0.000  -0.000  -0.000  -0.000  -0.000  -0.000  -0.000  -0.000  -0.000
 
    2   7.538  -8.719  -5.653   8.831   3.547  -7.759  -1.666   5.699   0.303
        0.000   0.000   0.000   0.000   0.000   0.000   0.000   0.000  -0.000
 
  Average fulfillment of the sum rule on Im[epsilon] for q-point    9 :     81.33  [%]
 
 
--------------------------------------------------------------------------------
  q-point number 10        q = ( 0.166667, 0.333333, 0.000000) [r.l.u.]
--------------------------------------------------------------------------------
  chi0(G,G') at the    1 th omega   0.0000   0.0000 [eV]
       1       2       3       4       5       6       7       8       9
    1 -26.956  25.314  25.314 -20.778 -20.777  14.389  14.389  -7.540  -7.540
        0.000   0.000  -0.000  -0.000  -0.000   0.000  -0.000  -0.000   0.000
 
    2  25.314 -28.575 -19.523  28.286  12.699 -24.289  -6.316  17.409   1.422
       -0.000   0.000   0.000   0.000  -0.000  -0.000   0.000   0.000  -0.000
 
  chi0(G,G') at the    2 th omega   0.0000  16.7000 [eV]
       1       2       3       4       5       6       7       8       9
    1 -10.056   9.446   9.446  -7.758  -7.758   5.371   5.371  -2.795  -2.795
        0.000   0.000  -0.000  -0.000  -0.000   0.000  -0.000  -0.000  -0.000
 
    2   9.446 -10.728  -7.239  10.698   4.659  -9.276  -2.254   6.737   0.419
       -0.000   0.000   0.000   0.000  -0.000  -0.000   0.000   0.000  -0.000
 
  Average fulfillment of the sum rule on Im[epsilon] for q-point   10 :     80.61  [%]
 
 
--------------------------------------------------------------------------------
  q-point number 11        q = ( 0.333333, 0.333333, 0.000000) [r.l.u.]
--------------------------------------------------------------------------------
  chi0(G,G') at the    1 th omega   0.0000   0.0000 [eV]
       1       2       3       4       5       6       7       8       9
    1 -40.391  37.944  37.944 -31.174 -31.174  21.625  21.625 -11.358 -11.358
        0.000   0.000  -0.000  -0.000  -0.000   0.000  -0.000  -0.000  -0.000
 
    2  37.944 -41.778 -30.106  40.482  20.205 -34.150 -10.372  24.139   2.341
       -0.000   0.000   0.000   0.000  -0.000  -0.000   0.000   0.000  -0.000
 
  chi0(G,G') at the    2 th omega   0.0000  16.7000 [eV]
       1       2       3       4       5       6       7       8       9
    1 -15.686  14.736  14.736 -12.102 -12.102   8.377   8.377  -4.354  -4.354
        0.000   0.000  -0.000  -0.000  -0.000   0.000  -0.000  -0.000  -0.000
 
    2  14.736 -16.300 -11.630  15.878   7.732 -13.485  -3.871   9.615   0.729
       -0.000   0.000   0.000   0.000  -0.000  -0.000   0.000   0.000  -0.000
 
  Average fulfillment of the sum rule on Im[epsilon] for q-point   11 :     79.42  [%]
 
 
--------------------------------------------------------------------------------
  q-point number 12        q = ( 0.500000, 0.333333, 0.000000) [r.l.u.]
--------------------------------------------------------------------------------
  chi0(G,G') at the    1 th omega   0.0000   0.0000 [eV]
       1       2       3       4       5       6       7       8       9
    1 -56.311  52.905  52.905 -43.477 -43.477  30.163  30.163 -15.822 -15.822
        0.000   0.000  -0.000  -0.000  -0.000   0.000  -0.000  -0.000  -0.000
 
    2  52.905 -57.479 -42.582  55.036  28.983 -45.959 -15.027  32.226   3.265
       -0.000   0.000   0.000   0.000  -0.000  -0.000   0.000   0.000  -0.000
 
  chi0(G,G') at the    2 th omega   0.0000  16.7000 [eV]
       1       2       3       4       5       6       7       8       9
    1 -23.773  22.330  22.330 -18.332 -18.332  12.676  12.676  -6.571  -6.571
        0.000   0.000  -0.000  -0.000  -0.000   0.000  -0.000  -0.000  -0.000
 
    2  22.330 -24.308 -17.921  23.326  12.119 -19.535  -6.160  13.748   1.142
       -0.000   0.000   0.000   0.000  -0.000  -0.000   0.000   0.000  -0.000
 
  Average fulfillment of the sum rule on Im[epsilon] for q-point   12 :     78.97  [%]
 
 
--------------------------------------------------------------------------------
  q-point number 13        q = ( 0.000000, 0.500000, 0.000000) [r.l.u.]
--------------------------------------------------------------------------------
  chi0(G,G') at the    1 th omega   0.0000   0.0000 [eV]
       1       2       3       4       5       6       7       8       9
    1 -40.132  37.683  37.683 -30.912 -30.912  21.377  21.377 -11.154 -11.154
        0.000  -0.000  -0.000  -0.000  -0.000  -0.000  -0.000  -0.000  -0.000
 
    2  37.683 -41.507 -29.850  40.200  19.952 -33.873 -10.137  23.897   2.152
        0.000   0.000   0.000   0.000   0.000   0.000   0.000   0.000  -0.000
 
  chi0(G,G') at the    2 th omega   0.0000  16.7000 [eV]
       1       2       3       4       5       6       7       8       9
    1 -16.594  15.584  15.585 -12.789 -12.789   8.838   8.838  -4.581  -4.581
        0.000  -0.000  -0.000  -0.000  -0.000  -0.000  -0.000  -0.000  -0.000
 
    2  15.584 -17.191 -12.329  16.696   8.212 -14.134  -4.112  10.042   0.763
        0.000   0.000   0.000   0.000   0.000  -0.000   0.000   0.000  -0.000
 
  Average fulfillment of the sum rule on Im[epsilon] for q-point   13 :     80.04  [%]
 
 
--------------------------------------------------------------------------------
  q-point number 14        q = ( 0.166667, 0.500000, 0.000000) [r.l.u.]
--------------------------------------------------------------------------------
  chi0(G,G') at the    1 th omega   0.0000   0.0000 [eV]
       1       2       3       4       5       6       7       8       9
    1 -44.258  41.556  41.556 -34.085 -34.085  23.561  23.561 -12.272 -12.272
        0.000   0.000  -0.000  -0.000  -0.000   0.000  -0.000  -0.000  -0.000
 
    2  41.556 -45.556 -33.085  43.930  22.227 -36.868 -11.336  25.913   2.379
       -0.000   0.000   0.000   0.000  -0.000  -0.000   0.000   0.000  -0.000
 
  chi0(G,G') at the    2 th omega   0.0000  16.7000 [eV]
       1       2       3       4       5       6       7       8       9
    1 -18.351  17.234  17.234 -14.142 -14.142   9.772   9.772  -5.061  -5.061
        0.000   0.000  -0.000  -0.000  -0.000   0.000  -0.000  -0.000  -0.000
 
    2  17.234 -18.930 -13.697  18.312   9.166 -15.446  -4.611  10.936   0.854
       -0.000   0.000   0.000   0.000  -0.000  -0.000   0.000   0.000  -0.000
 
  Average fulfillment of the sum rule on Im[epsilon] for q-point   14 :     79.69  [%]
 
 
--------------------------------------------------------------------------------
  q-point number 15        q = ( 0.333333, 0.500000, 0.000000) [r.l.u.]
--------------------------------------------------------------------------------
  chi0(G,G') at the    1 th omega   0.0000   0.0000 [eV]
       1       2       3       4       5       6       7       8       9
    1 -54.931  51.579  51.579 -42.308 -42.308  29.239  29.239 -15.203 -15.203
        0.000   0.000  -0.000  -0.000  -0.000   0.000  -0.000  -0.000  -0.000
 
    2  51.579 -56.055 -41.447  53.629  28.104 -44.693 -14.439  31.217   2.972
       -0.000   0.000   0.000   0.000  -0.000  -0.000   0.000   0.000  -0.000
 
  chi0(G,G') at the    2 th omega   0.0000  16.7000 [eV]
       1       2       3       4       5       6       7       8       9
    1 -23.254  21.838  21.838 -17.917 -17.917  12.374  12.374  -6.399  -6.399
        0.000   0.000  -0.000  -0.000  -0.000   0.000  -0.000  -0.000  -0.000
 
    2  21.838 -23.784 -17.510  22.825  11.824 -19.108  -5.994  13.434   1.098
       -0.000   0.000   0.000   0.000  -0.000  -0.000   0.000   0.000  -0.000
 
  Average fulfillment of the sum rule on Im[epsilon] for q-point   15 :     79.03  [%]
 
 
--------------------------------------------------------------------------------
  q-point number 16        q = ( 0.500000, 0.500000, 0.000000) [r.l.u.]
--------------------------------------------------------------------------------
  chi0(G,G') at the    1 th omega   0.0000   0.0000 [eV]
       1       2       3       4       5       6       7       8       9
    1 -68.285  64.124  64.124 -52.610 -52.610  36.363  36.363 -18.892 -18.892
        0.000   0.000  -0.000  -0.000  -0.000   0.000  -0.000  -0.000  -0.000
 
    2  64.124 -69.233 -51.886  65.845  35.420 -54.596 -18.277  37.982   3.673
       -0.000   0.000   0.000   0.000  -0.000  -0.000   0.000   0.000  -0.000
 
  chi0(G,G') at the    2 th omega   0.0000  16.7000 [eV]
       1       2       3       4       5       6       7       8       9
    1 -30.368  28.517  28.517 -23.389 -23.389  16.141  16.141  -8.327  -8.327
        0.000   0.000  -0.000  -0.000  -0.000   0.000  -0.000  -0.000  -0.000
 
    2  28.517 -30.833 -23.035  29.380  15.663 -24.428  -7.981  17.060   1.434
       -0.000   0.000   0.000   0.000  -0.000  -0.000   0.000   0.000  -0.000
 
  Average fulfillment of the sum rule on Im[epsilon] for q-point   16 :     78.77  [%]
 
================================================================================
== DATASET  4 ==================================================================
-   mpi_nproc: 96, omp_nthreads: -1 (-1 if OMP is not activated)
 

--- !DatasetInfo
iteration_state: {dtset: 4, }
dimensions: {natom: 32, nkpt: 16, mband: 1278, nsppol: 1, nspinor: 1, nspden: 1, mpw: 90853, }
cutoff_energies: {ecut:  50.0, pawecutdg:  -1.0, }
electrons: {nelect:   1.04000000E+02, charge:   0.00000000E+00, occopt:   1.00000000E+00, tsmear:   1.00000000E-02, }
meta: {optdriver: 4, gwcalctyp: 0, }
...

 mkfilename : getwfk/=0, take file _WFK from output of DATASET   2.
 
 mkfilename : getscr/=0, take file _SCR from output of DATASET   3.
 
 SIGMA: Calculation of the GW corrections 
 
 Based on a program developped by R.W. Godby, V. Olevano, G. Onida, and L. Reining.
 Incorporated in ABINIT by V. Olevano, G.-M. Rignanese, and M. Torrent.
.Using single precision arithmetic ; gwpc =  4
 
 Real(R)+Recip(G) space primitive vectors, cartesian coordinates (Bohr,Bohr^-1):
 R(1)=  7.9710704  0.0000000  0.0000000  G(1)=  0.1254537  0.0000000  0.0000000
 R(2)=  0.0000000  8.2924090  0.0000000  G(2)=  0.0000000  0.1205922  0.0000000
 R(3)=  0.0000000  0.0000000 81.2582237  G(3)=  0.0000000  0.0000000  0.0123064
 Unit cell volume ucvol=  5.3711178E+03 bohr^3
 Angles (23,13,12)=  9.00000000E+01  9.00000000E+01  9.00000000E+01 degrees
--------------------------------------------------------------------------------
 
 ==== K-mesh for the wavefunctions ====
 Number of points in the irreducible wedge :    16
 Reduced coordinates and weights : 
 
     1)     0.00000000E+00  0.00000000E+00  0.00000000E+00       0.02778
     2)     1.66666667E-01  0.00000000E+00  0.00000000E+00       0.05556
     3)     3.33333333E-01  0.00000000E+00  0.00000000E+00       0.05556
     4)     5.00000000E-01  0.00000000E+00  0.00000000E+00       0.02778
     5)     0.00000000E+00  1.66666667E-01  0.00000000E+00       0.05556
     6)     1.66666667E-01  1.66666667E-01  0.00000000E+00       0.11111
     7)     3.33333333E-01  1.66666667E-01  0.00000000E+00       0.11111
     8)     5.00000000E-01  1.66666667E-01  0.00000000E+00       0.05556
     9)     0.00000000E+00  3.33333333E-01  0.00000000E+00       0.05556
    10)     1.66666667E-01  3.33333333E-01  0.00000000E+00       0.11111
    11)     3.33333333E-01  3.33333333E-01  0.00000000E+00       0.11111
    12)     5.00000000E-01  3.33333333E-01  0.00000000E+00       0.05556
    13)     0.00000000E+00  5.00000000E-01  0.00000000E+00       0.02778
    14)     1.66666667E-01  5.00000000E-01  0.00000000E+00       0.05556
    15)     3.33333333E-01  5.00000000E-01  0.00000000E+00       0.05556
    16)     5.00000000E-01  5.00000000E-01  0.00000000E+00       0.02778
 
 Together with  8 symmetry operations and time-reversal symmetry 
 yields    36 points in the full Brillouin Zone.
 
 
 ==== Q-mesh for screening function ====
 Number of points in the irreducible wedge :    16
 Reduced coordinates and weights : 
 
     1)     0.00000000E+00  0.00000000E+00  0.00000000E+00       0.02778
     2)     1.66666667E-01  0.00000000E+00  0.00000000E+00       0.05556
     3)     3.33333333E-01  0.00000000E+00  0.00000000E+00       0.05556
     4)     5.00000000E-01  0.00000000E+00  0.00000000E+00       0.02778
     5)     0.00000000E+00  1.66666667E-01  0.00000000E+00       0.05556
     6)     1.66666667E-01  1.66666667E-01  0.00000000E+00       0.11111
     7)     3.33333333E-01  1.66666667E-01  0.00000000E+00       0.11111
     8)     5.00000000E-01  1.66666667E-01  0.00000000E+00       0.05556
     9)     0.00000000E+00  3.33333333E-01  0.00000000E+00       0.05556
    10)     1.66666667E-01  3.33333333E-01  0.00000000E+00       0.11111
    11)     3.33333333E-01  3.33333333E-01  0.00000000E+00       0.11111
    12)     5.00000000E-01  3.33333333E-01  0.00000000E+00       0.05556
    13)     0.00000000E+00  5.00000000E-01  0.00000000E+00       0.02778
    14)     1.66666667E-01  5.00000000E-01  0.00000000E+00       0.05556
    15)     3.33333333E-01  5.00000000E-01  0.00000000E+00       0.05556
    16)     5.00000000E-01  5.00000000E-01  0.00000000E+00       0.02778
 
 Together with  8 symmetry operations and time-reversal symmetry 
 yields    36 points in the full Brillouin Zone.
 
 
 setmesh: FFT mesh size selected  =    48x   48x  450
          total number of points  =      1036800
 
 Number of electrons calculated from density =  104.0000; Expected =  104.0000
 average of density, n =  0.019363
 r_s =    2.3102
 omega_plasma =   13.4227 [eV]
 
 
 === KS Band Gaps ===
  >>>> For spin  1
   Minimum direct gap =   2.0635 [eV], located at k-point      :   0.0000  0.0000  0.0000
   Fundamental gap    =   2.0635 [eV], Top of valence bands at :   0.0000  0.0000  0.0000
                                       Bottom of conduction at :   0.0000  0.0000  0.0000
 SIGMA fundamental parameters:
 PLASMON POLE MODEL  1
 number of plane-waves for SigmaX                32005
 number of plane-waves for SigmaC and W           2825
 number of plane-waves for wavefunctions         90853
 number of bands                                  1278
 number of independent spin polarizations            1
 number of spinorial components                      1
 number of k-points in IBZ                          16
 number of q-points in IBZ                          16
 number of symmetry operations                       8
 number of k-points in BZ                           36
 number of q-points in BZ                           36
 number of frequencies for dSigma/dE                 9
 frequency step for dSigma/dE [eV]                0.25
 number of omega for Sigma on real axis              0
 max omega for Sigma on real axis  [eV]           0.00
 zcut for avoiding poles [eV]                     0.10
 
 EPSILON^-1 parameters (SCR file):
 dimension of the eps^-1 matrix on file           2825
 dimension of the eps^-1 matrix used              2825
 number of plane-waves for wavefunctions         90853
 number of bands                                   852
 number of q-points in IBZ                          16
 number of frequencies                               2
 number of real frequencies                          1
 number of imag frequencies                          1
 
 matrix elements of self-energy operator (all in [eV])
 
 Perturbative Calculation

--- !SelfEnergy_ee
iteration_state: {dtset: 4, }
kpoint     : [   0.000,    0.000,    0.000, ]
spin       : 1
KS_gap     :    2.063
QP_gap     :    5.984
Delta_QP_KS:    3.920
data: !SigmaeeData |
     Band     E0 <VxcDFT>   SigX SigC(E0)      Z dSigC/dE  Sig(E)    E-E0       E
       50  -2.230 -16.128 -18.990   1.290   0.839  -0.192 -17.446  -1.319  -3.549
       51  -1.877 -16.352 -19.450   1.440   0.838  -0.193 -17.742  -1.390  -3.267
       52  -1.850 -16.315 -19.490   1.462   0.839  -0.192 -17.753  -1.437  -3.287
       53   0.214  -8.068  -3.087  -2.217   0.898  -0.113  -5.585   2.483   2.697
...

 
== END DATASET(S) ==============================================================
================================================================================
  
 -outvars: echo values of variables after computation  --------
            acell      7.9710703563E+00  8.2924089954E+00  8.1258223714E+01 Bohr
              amu      1.20110000E+01  1.00794000E+00
             bdgw4         50      53
          chkprim           0
           diemac      1.20000000E+01
             ecut      5.00000000E+01 Hartree
          ecuteps3     5.00000000E+00 Hartree
          ecuteps4     0.00000000E+00 Hartree
         ecutsigx3     0.00000000E+00 Hartree
         ecutsigx4     2.50000000E+01 Hartree
          ecutwfn      5.00000000E+01 Hartree
           etotal3     0.0000000000E+00
[...]
                       0.000000  0.000000  0.000000  0.000000  0.000000  0.000000
                       0.000000  0.000000  0.000000  0.000000  0.000000  0.000000
                       0.000000  0.000000  0.000000  0.000000  0.000000  0.000000
                       0.000000  0.000000  0.000000  0.000000  0.000000  0.000000
                       0.000000  0.000000  0.000000  0.000000  0.000000  0.000000
                       0.000000  0.000000  0.000000  0.000000  0.000000  0.000000
                       0.000000  0.000000  0.000000  0.000000  0.000000  0.000000
                       0.000000  0.000000  0.000000  0.000000  0.000000  0.000000
                       0.000000  0.000000  0.000000  0.000000  0.000000  0.000000
                       0.000000  0.000000  0.000000  0.000000  0.000000  0.000000
                       0.000000  0.000000  0.000000  0.000000  0.000000  0.000000
                       0.000000  0.000000  0.000000  0.000000  0.000000  0.000000
                       0.000000  0.000000  0.000000  0.000000  0.000000  0.000000
                       0.000000  0.000000  0.000000  0.000000  0.000000  0.000000
                       0.000000  0.000000  0.000000  0.000000  0.000000  0.000000
                       0.000000  0.000000  0.000000  0.000000  0.000000  0.000000
                       0.000000  0.000000  0.000000  0.000000  0.000000  0.000000
                       0.000000  0.000000  0.000000  0.000000  0.000000  0.000000
                       0.000000  0.000000  0.000000  0.000000  0.000000  0.000000
                       0.000000  0.000000  0.000000  0.000000  0.000000  0.000000
                       0.000000  0.000000  0.000000  0.000000  0.000000  0.000000
                       0.000000  0.000000  0.000000  0.000000  0.000000  0.000000
                       0.000000  0.000000  0.000000  0.000000  0.000000  0.000000
                       0.000000  0.000000  0.000000  0.000000  0.000000  0.000000
                       0.000000  0.000000  0.000000  0.000000  0.000000  0.000000
                       0.000000  0.000000  0.000000  0.000000  0.000000  0.000000
                       0.000000  0.000000  0.000000  0.000000  0.000000  0.000000
                       0.000000  0.000000  0.000000  0.000000  0.000000  0.000000
                       0.000000  0.000000  0.000000  0.000000  0.000000  0.000000
                       0.000000  0.000000  0.000000  0.000000  0.000000  0.000000
                       0.000000  0.000000  0.000000  0.000000  0.000000  0.000000
                       0.000000  0.000000  0.000000  0.000000  0.000000  0.000000
                       0.000000  0.000000  0.000000  0.000000  0.000000  0.000000
                       0.000000  0.000000  0.000000  0.000000  0.000000  0.000000
                       0.000000  0.000000  0.000000  0.000000  0.000000  0.000000
                       0.000000  0.000000  0.000000  0.000000  0.000000  0.000000
                       0.000000  0.000000  0.000000  0.000000  0.000000  0.000000
                       0.000000  0.000000  0.000000  0.000000  0.000000  0.000000
                       0.000000  0.000000  0.000000  0.000000  0.000000  0.000000
                       0.000000  0.000000  0.000000  0.000000  0.000000  0.000000
                       0.000000  0.000000  0.000000  0.000000  0.000000  0.000000
                       0.000000  0.000000  0.000000  0.000000  0.000000  0.000000
                       0.000000  0.000000  0.000000  0.000000  0.000000  0.000000
                       0.000000  0.000000  0.000000  0.000000  0.000000  0.000000
                       0.000000  0.000000  0.000000  0.000000  0.000000  0.000000
                       0.000000  0.000000  0.000000  0.000000  0.000000  0.000000
                       0.000000  0.000000  0.000000  0.000000  0.000000  0.000000
                       0.000000  0.000000  0.000000  0.000000  0.000000  0.000000
                       0.000000  0.000000  0.000000  0.000000  0.000000  0.000000
                       0.000000  0.000000  0.000000  0.000000  0.000000  0.000000
                       0.000000  0.000000  0.000000  0.000000  0.000000  0.000000
                       0.000000  0.000000  0.000000  0.000000  0.000000  0.000000
                       0.000000  0.000000  0.000000  0.000000  0.000000  0.000000
                       0.000000  0.000000  0.000000  0.000000  0.000000  0.000000
                       0.000000  0.000000  0.000000  0.000000  0.000000  0.000000
                       0.000000  0.000000  0.000000  0.000000  0.000000  0.000000
                       0.000000  0.000000  0.000000  0.000000  0.000000  0.000000
                       0.000000  0.000000  0.000000  0.000000  0.000000  0.000000
                       0.000000  0.000000  0.000000  0.000000  0.000000  0.000000
                       0.000000  0.000000  0.000000  0.000000  0.000000  0.000000
        optdriver3          3
        optdriver4          4
           ppmfrq3     6.13713734E-01 Hartree
           ppmfrq4     0.00000000E+00 Hartree
          spgroup          57
           strten3     0.0000000000E+00  0.0000000000E+00  0.0000000000E+00
                       0.0000000000E+00  0.0000000000E+00  0.0000000000E+00
           strten4     0.0000000000E+00  0.0000000000E+00  0.0000000000E+00
                       0.0000000000E+00  0.0000000000E+00  0.0000000000E+00
           symrel      1  0  0   0  1  0   0  0  1      -1  0  0   0 -1  0   0  0 -1
                      -1  0  0   0  1  0   0  0 -1       1  0  0   0 -1  0   0  0  1
                      -1  0  0   0 -1  0   0  0  1       1  0  0   0  1  0   0  0 -1
                       1  0  0   0 -1  0   0  0 -1      -1  0  0   0  1  0   0  0  1
            tnons      0.0000000  0.0000000  0.0000000    -0.0000000  0.0000000  0.0000000
                       0.5000000  0.5000000  0.0000000     0.5000000  0.5000000  0.0000000
                      -0.0000000  0.5000000  0.0000000     0.0000000  0.5000000  0.0000000
                       0.5000000  0.0000000  0.0000000     0.5000000  0.0000000  0.0000000
           toldfe      1.00000000E-08 Hartree
           tolsym      1.00000000E-04
            typat      1  1  1  1  1  1  1  1  1  1  1  1  1  1  1  1  1  1  1  1
                       1  1  1  1  2  2  2  2  2  2  2  2
          usekden           1
          vcutgeo      1.0000000  1.0000000  0.0000000
              wtk        0.02778    0.05556    0.05556    0.02778    0.05556    0.11111
                         0.11111    0.05556    0.05556    0.11111    0.11111    0.05556
                         0.02778    0.05556    0.05556    0.02778
           xangst      1.8274779776E+00  1.8068254512E+00  1.8390210999E+01
                       2.3906307830E+00  2.5813283935E+00  2.4609789001E+01
                       3.9365323579E+00  2.5813283935E+00  2.4609789001E+01
                       2.8157640269E-01  1.8068254512E+00  1.8390210999E+01
                       2.8157640269E-01  4.0009023735E+00  2.4609789001E+01
                       3.9365323579E+00  3.8725147116E-01  1.8390210999E+01
                       2.3906307830E+00  3.8725147116E-01  1.8390210999E+01
                       1.8274779776E+00  4.0009023735E+00  2.4609789001E+01
                       1.8453529137E+00  1.8292891124E+00  2.0872377757E+01
                       2.3727558469E+00  2.5588647323E+00  2.2127622243E+01
                       3.9544072941E+00  2.5588647323E+00  2.2127622243E+01
                       2.6370146656E-01  1.8292891124E+00  2.0872377757E+01
                       2.6370146656E-01  4.0233660347E+00  2.2127622243E+01
                       3.9544072941E+00  3.6478780997E-01  2.0872377757E+01
                       2.3727558469E+00  3.6478780997E-01  2.0872377757E+01
                       1.8453529137E+00  4.0233660347E+00  2.2127622243E+01
                       1.8439494302E+00  1.8248219548E+00  2.3386652101E+01
                       2.3741593304E+00  2.5633318899E+00  1.9613347899E+01
                       3.9530038105E+00  2.5633318899E+00  1.9613347899E+01
                       2.6510495009E-01  1.8248219548E+00  2.3386652101E+01
                       2.6510495009E-01  4.0188988771E+00  1.9613347899E+01
                       3.9530038105E+00  3.6925496756E-01  2.3386652101E+01
                       2.3741593304E+00  3.6925496756E-01  2.3386652101E+01
                       1.8439494302E+00  4.0188988771E+00  1.9613347899E+01
                       5.5135131688E-02  4.2776651549E+00  1.7473225849E+01
                       4.1629736289E+00  1.1048868981E-01  2.5526774151E+01
                       2.1641895120E+00  1.1048868981E-01  2.5526774151E+01
                       2.0539192486E+00  4.2776651549E+00  1.7473225849E+01
                       2.0539192486E+00  2.0835882325E+00  2.5526774151E+01
                       2.1641895120E+00  2.3045656121E+00  1.7473225849E+01
                       4.1629736289E+00  2.3045656121E+00  1.7473225849E+01
                       5.5135131688E-02  2.0835882325E+00  2.5526774151E+01
            xcart      3.4534328916E+00  3.4144052727E+00  3.4752462313E+01
                       4.5176374647E+00  4.8780037227E+00  4.6505761401E+01
                       7.4389680697E+00  4.8780037227E+00  4.6505761401E+01
                       5.3210228657E-01  3.4144052727E+00  3.4752462313E+01
                       5.3210228657E-01  7.5606097704E+00  4.6505761401E+01
                       7.4389680697E+00  7.3179922505E-01  3.4752462313E+01
                       4.5176374647E+00  7.3179922505E-01  3.4752462313E+01
                       3.4534328916E+00  7.5606097704E+00  4.6505761401E+01
                       3.4872116255E+00  3.4568554402E+00  3.9443077703E+01
                       4.4838587308E+00  4.8355535552E+00  4.1815146011E+01
                       7.4727468037E+00  4.8355535552E+00  4.1815146011E+01
                       4.9832355264E-01  3.4568554402E+00  3.9443077703E+01
                       4.9832355264E-01  7.6030599379E+00  4.1815146011E+01
                       7.4727468037E+00  6.8934905746E-01  3.9443077703E+01
                       4.4838587308E+00  6.8934905746E-01  3.9443077703E+01
                       3.4872116255E+00  7.6030599379E+00  4.1815146011E+01
                       3.4845594260E+00  3.4484137358E+00  4.4194367636E+01
                       4.4865109303E+00  4.8439952596E+00  3.7063856078E+01
                       7.4700946042E+00  4.8439952596E+00  3.7063856078E+01
                       5.0097575214E-01  3.4484137358E+00  4.4194367636E+01
                       5.0097575214E-01  7.5946182335E+00  3.7063856078E+01
                       7.4700946042E+00  6.9779076190E-01  4.4194367636E+01
                       4.4865109303E+00  6.9779076190E-01  4.4194367636E+01
                       3.4845594260E+00  7.5946182335E+00  3.7063856078E+01
                       1.0419029919E-01  8.0836156309E+00  3.3019611513E+01
                       7.8668800571E+00  2.0879336453E-01  4.8238612201E+01
                       4.0897254773E+00  2.0879336453E-01  4.8238612201E+01
                       3.8813448790E+00  8.0836156309E+00  3.3019611513E+01
                       3.8813448790E+00  3.9374111332E+00  4.8238612201E+01
                       4.0897254773E+00  4.3549978622E+00  3.3019611513E+01
                       7.8668800571E+00  4.3549978622E+00  3.3019611513E+01
                       1.0419029919E-01  3.9374111332E+00  4.8238612201E+01
             xred      4.3324581734E-01  4.1175070773E-01  4.2767932555E-01
                       5.6675418266E-01  5.8824929227E-01  5.7232067445E-01
                       9.3324581734E-01  5.8824929227E-01  5.7232067445E-01
                       6.6754182661E-02  4.1175070773E-01  4.2767932555E-01
                       6.6754182661E-02  9.1175070773E-01  5.7232067445E-01
                       9.3324581734E-01  8.8249292269E-02  4.2767932555E-01
                       5.6675418266E-01  8.8249292269E-02  4.2767932555E-01
                       4.3324581734E-01  9.1175070773E-01  5.7232067445E-01
                       4.3748348335E-01  4.1686986763E-01  4.8540413389E-01
                       5.6251651665E-01  5.8313013237E-01  5.1459586611E-01
                       9.3748348335E-01  5.8313013237E-01  5.1459586611E-01
                       6.2516516649E-02  4.1686986763E-01  4.8540413389E-01
                       6.2516516649E-02  9.1686986763E-01  5.1459586611E-01
                       9.3748348335E-01  8.3130132371E-02  4.8540413389E-01
                       5.6251651665E-01  8.3130132371E-02  4.8540413389E-01
                       4.3748348335E-01  9.1686986763E-01  5.1459586611E-01
                       4.3715075520E-01  4.1585186376E-01  5.4387563026E-01
                       5.6284924480E-01  5.8414813624E-01  4.5612436974E-01
                       9.3715075520E-01  5.8414813624E-01  4.5612436974E-01
                       6.2849244800E-02  4.1585186376E-01  5.4387563026E-01
                       6.2849244800E-02  9.1585186376E-01  4.5612436974E-01
                       9.3715075520E-01  8.4148136240E-02  5.4387563026E-01
                       5.6284924480E-01  8.4148136240E-02  5.4387563026E-01
                       4.3715075520E-01  9.1585186376E-01  4.5612436974E-01
                       1.3071055019E-02  9.7482114490E-01  4.0635408952E-01
                       9.8692894498E-01  2.5178855100E-02  5.9364591048E-01
                       5.1307105502E-01  2.5178855100E-02  5.9364591048E-01
                       4.8692894498E-01  9.7482114490E-01  4.0635408952E-01
                       4.8692894498E-01  4.7482114490E-01  5.9364591048E-01
                       5.1307105502E-01  5.2517885510E-01  4.0635408952E-01
                       9.8692894498E-01  5.2517885510E-01  4.0635408952E-01
                       1.3071055019E-02  4.7482114490E-01  5.9364591048E-01
            znucl        6.00000    1.00000
 
================================================================================


- Timing analysis has been suppressed with timopt=0



================================================================================

 Suggested references for the acknowledgment of ABINIT usage.

 The users of ABINIT have little formal obligations with respect to the ABINIT group
 (those specified in the GNU General Public License, http://www.gnu.org/copyleft/gpl.txt).
 However, it is common practice in the scientific literature,
 to acknowledge the efforts of people that have made the research possible.
 In this spirit, please find below suggested citations of work written by ABINIT developers,
 corresponding to implementations inside of ABINIT that you have used in the present run.
 Note also that it will be of great value to readers of publications presenting these results,
 to read papers enabling them to understand the theoretical formalism and details
 of the ABINIT implementation.
 For information on why they are suggested, see also https://docs.abinit.org/theory/acknowledgments.
-
- [1] Libxc: A library of exchange and correlation functionals for density functional theory.
- M.A.L. Marques, M.J.T. Oliveira, T. Burnus, Computer Physics Communications 183, 2227 (2012).
- Comment: to be cited when LibXC is used (negative value of ixc)
- Strong suggestion to cite this paper.
- DOI and bibtex: see https://docs.abinit.org/theory/bibliography/#marques2012
-
- [2] The Abinit project: Impact, environment and recent developments.
- Computer Phys. Comm. 248, 107042 (2020).
- X.Gonze, B. Amadon, G. Antonius, F.Arnardi, L.Baguet, J.-M.Beuken,
- J.Bieder, F.Bottin, J.Bouchet, E.Bousquet, N.Brouwer, F.Bruneval,
- G.Brunin, T.Cavignac, J.-B. Charraud, Wei Chen, M.Cote, S.Cottenier,
- J.Denier, G.Geneste, Ph.Ghosez, M.Giantomassi, Y.Gillet, O.Gingras,
- D.R.Hamann, G.Hautier, Xu He, N.Helbig, N.Holzwarth, Y.Jia, F.Jollet,
- W.Lafargue-Dit-Hauret, K.Lejaeghere, M.A.L.Marques, A.Martin, C.Martins,
- H.P.C. Miranda, F.Naccarato, K. Persson, G.Petretto, V.Planes, Y.Pouillon,
- S.Prokhorenko, F.Ricci, G.-M.Rignanese, A.H.Romero, M.M.Schmitt, M.Torrent,
- M.J.van Setten, B.Van Troeye, M.J.Verstraete, G.Zerah and J.W.Zwanzig
- Comment: the fifth generic paper describing the ABINIT project.
- Note that a version of this paper, that is not formatted for Computer Phys. Comm. 
- is available at https://www.abinit.org/sites/default/files/ABINIT20.pdf .
- The licence allows the authors to put it on the Web.
- DOI and bibtex: see https://docs.abinit.org/theory/bibliography/#gonze2020
-
- [3] ABINIT: Overview, and focus on selected capabilities
- J. Chem. Phys. 152, 124102 (2020).
- A. Romero, D.C. Allan, B. Amadon, G. Antonius, T. Applencourt, L.Baguet,
- J.Bieder, F.Bottin, J.Bouchet, E.Bousquet, F.Bruneval,
- G.Brunin, D.Caliste, M.Cote,
- J.Denier, C. Dreyer, Ph.Ghosez, M.Giantomassi, Y.Gillet, O.Gingras,
- D.R.Hamann, G.Hautier, F.Jollet, G. Jomard,
- A.Martin, 
- H.P.C. Miranda, F.Naccarato, G.Petretto, N.A. Pike, V.Planes,
- S.Prokhorenko, T. Rangel, F.Ricci, G.-M.Rignanese, M.Royo, M.Stengel, M.Torrent,
- M.J.van Setten, B.Van Troeye, M.J.Verstraete, J.Wiktor, J.W.Zwanziger, and X.Gonze.
- Comment: a global overview of ABINIT, with focus on selected capabilities .
- Note that a version of this paper, that is not formatted for J. Chem. Phys 
- is available at https://www.abinit.org/sites/default/files/ABINIT20_JPC.pdf .
- The licence allows the authors to put it on the Web.
- DOI and bibtex: see https://docs.abinit.org/theory/bibliography/#romero2020
-
- [4] Recent developments in the ABINIT software package.
- Computer Phys. Comm. 205, 106 (2016).
- X.Gonze, F.Jollet, F.Abreu Araujo, D.Adams, B.Amadon, T.Applencourt,
- C.Audouze, J.-M.Beuken, J.Bieder, A.Bokhanchuk, E.Bousquet, F.Bruneval
- D.Caliste, M.Cote, F.Dahm, F.Da Pieve, M.Delaveau, M.Di Gennaro,
- B.Dorado, C.Espejo, G.Geneste, L.Genovese, A.Gerossier, M.Giantomassi,
- Y.Gillet, D.R.Hamann, L.He, G.Jomard, J.Laflamme Janssen, S.Le Roux,
- A.Levitt, A.Lherbier, F.Liu, I.Lukacevic, A.Martin, C.Martins,
- M.J.T.Oliveira, S.Ponce, Y.Pouillon, T.Rangel, G.-M.Rignanese,
- A.H.Romero, B.Rousseau, O.Rubel, A.A.Shukri, M.Stankovski, M.Torrent,
- M.J.Van Setten, B.Van Troeye, M.J.Verstraete, D.Waroquier, J.Wiktor,
- B.Xu, A.Zhou, J.W.Zwanziger.
- Comment: the fourth generic paper describing the ABINIT project.
- Note that a version of this paper, that is not formatted for Computer Phys. Comm. 
- is available at https://www.abinit.org/sites/default/files/ABINIT16.pdf .
- The licence allows the authors to put it on the Web.
- DOI and bibtex: see https://docs.abinit.org/theory/bibliography/#gonze2016
-
- And optionally:
-
- [5] ABINIT: First-principles approach of materials and nanosystem properties.
- Computer Phys. Comm. 180, 2582-2615 (2009).
- X. Gonze, B. Amadon, P.-M. Anglade, J.-M. Beuken, F. Bottin, P. Boulanger, F. Bruneval,
- D. Caliste, R. Caracas, M. Cote, T. Deutsch, L. Genovese, Ph. Ghosez, M. Giantomassi
- S. Goedecker, D.R. Hamann, P. Hermet, F. Jollet, G. Jomard, S. Leroux, M. Mancini, S. Mazevet,
- M.J.T. Oliveira, G. Onida, Y. Pouillon, T. Rangel, G.-M. Rignanese, D. Sangalli, R. Shaltaf,
- M. Torrent, M.J. Verstraete, G. Zerah, J.W. Zwanziger
- Comment: the third generic paper describing the ABINIT project.
- Note that a version of this paper, that is not formatted for Computer Phys. Comm. 
- is available at https://www.abinit.org/sites/default/files/ABINIT_CPC_v10.pdf .
- The licence allows the authors to put it on the Web.
- DOI and bibtex: see https://docs.abinit.org/theory/bibliography/#gonze2009
-
- Proc.   0 individual time (sec): cpu=       9916.7  wall=      10017.6
 
================================================================================
 
 Calculation completed.
.Delivered   0 WARNINGs and   2 COMMENTs to log file.
+Overall time at end (sec) : cpu=     951599.4  wall=     961664.3
