
.Version 9.7.2 of ABINIT 
.(MPI version, prepared for a x86_64_linux_intel2021.2 computer) 

.Copyright (C) 1998-2021 ABINIT group . 
 ABINIT comes with ABSOLUTELY NO WARRANTY.
 It is free software, and you are welcome to redistribute it
 under certain conditions (GNU General Public License,
 see ~abinit/COPYING or http://www.gnu.org/copyleft/gpl.txt).

 ABINIT is a project of the Universite Catholique de Louvain,
 Corning Inc. and other collaborators, see ~abinit/doc/developers/contributors.txt .
 Please read https://docs.abinit.org/theory/acknowledgments for suggested
 acknowledgments of the ABINIT effort.
 For more information, see https://www.abinit.org .

.Starting date : Tue  1 Mar 2022.
- ( at 03h44 )
  
- input  file    -> ./2F-2110_gw.abi
- output file    -> 2F-2110_gw.abo
- root for input  files -> 2F-2110_gw_i
- root for output files -> 2F-2110_gw_o
 
 
 DATASET    3 : space group Pb c m (# 57); Bravais oP (primitive ortho.)
================================================================================
 Values of the parameters that define the memory need for DATASET  3.
     intxc =       0    ionmov =       0      iscf =       7    lmnmax =       1
     lnmax =       1     mgfft =     486  mpssoang =       2    mqgrid =   24061
     natom =      24  nloc_mem =       1    nspden =       1   nspinor =       1
    nsppol =       1      nsym =       8    n1xccc =       0    ntypat =       2
    occopt =       1   xclevel =       2
-    mband =         660        mffmem =           1         mkmem =           1
       mpw =       93588          nfft =     1574640          nkpt =          16
================================================================================
P This job should need less than                    1459.056 Mbytes of memory.
  Rough estimation (10% accuracy) of disk space for files :
_ WF disk file :  15080.100 Mbytes ; DEN or POT disk file :     12.016 Mbytes.
================================================================================
 
 
 DATASET    4 : space group Pb c m (# 57); Bravais oP (primitive ortho.)
================================================================================
 Values of the parameters that define the memory need for DATASET  4.
     intxc =       0    ionmov =       0      iscf =       7    lmnmax =       1
     lnmax =       1     mgfft =     486  mpssoang =       2    mqgrid =   24061
     natom =      24  nloc_mem =       1    nspden =       1   nspinor =       1
    nsppol =       1      nsym =       8    n1xccc =       0    ntypat =       2
    occopt =       1   xclevel =       2
-    mband =         990        mffmem =           1         mkmem =           1
       mpw =       93588          nfft =     1574640          nkpt =          16
================================================================================
P This job should need less than                    1946.455 Mbytes of memory.
  Rough estimation (10% accuracy) of disk space for files :
_ WF disk file :  22620.148 Mbytes ; DEN or POT disk file :     12.016 Mbytes.
================================================================================
 
--------------------------------------------------------------------------------
------------- Echo of variables that govern the present computation ------------
--------------------------------------------------------------------------------
-
- outvars: echo of selected default values                                      
-   iomode0 =  0 , fftalg0 =512 , wfoptalg0 =  0
-
- outvars: echo of global parameters not present in the input file              
-  max_nthreads =    0
-
 -outvars: echo values of preprocessed input variables --------
            acell      8.3640758087E+00  8.7492337591E+00  7.5589045315E+01 Bohr
              amu      1.20110000E+01  1.89984032E+01
             bdgw4         58      61
          chkprim           0
           diemac      1.20000000E+01
             ecut      5.00000000E+01 Hartree
          ecuteps3     5.00000000E+00 Hartree
          ecuteps4     0.00000000E+00 Hartree
         ecutsigx3     0.00000000E+00 Hartree
         ecutsigx4     2.50000000E+01 Hartree
          ecutwfn      5.00000000E+01 Hartree
-          fftalg         512
           getscr3          0
           getscr4          3
           getwfk           2
      gw_icutcoul           2
           istwfk        1    0    0    1    0    0    0    0    0    0
                         0    0    1    0    0    1
              ixc     -208012
           jdtset        3    4
              kpt      0.00000000E+00  0.00000000E+00  0.00000000E+00
                       1.66666667E-01  0.00000000E+00  0.00000000E+00
                       3.33333333E-01  0.00000000E+00  0.00000000E+00
                       5.00000000E-01  0.00000000E+00  0.00000000E+00
                       0.00000000E+00  1.66666667E-01  0.00000000E+00
                       1.66666667E-01  1.66666667E-01  0.00000000E+00
                       3.33333333E-01  1.66666667E-01  0.00000000E+00
                       5.00000000E-01  1.66666667E-01  0.00000000E+00
                       0.00000000E+00  3.33333333E-01  0.00000000E+00
                       1.66666667E-01  3.33333333E-01  0.00000000E+00
                       3.33333333E-01  3.33333333E-01  0.00000000E+00
                       5.00000000E-01  3.33333333E-01  0.00000000E+00
                       0.00000000E+00  5.00000000E-01  0.00000000E+00
                       1.66666667E-01  5.00000000E-01  0.00000000E+00
                       3.33333333E-01  5.00000000E-01  0.00000000E+00
                       5.00000000E-01  5.00000000E-01  0.00000000E+00
            kptgw4     0.00000000E+00  0.00000000E+00  0.00000000E+00
         kptrlatt        6    0    0      0    6    0      0    0    1
          kptrlen      5.01844549E+01
P           mkmem           1
            natom          24
            nband3        660
            nband4        990
           ndtset           2
            ngfft          54      60     486
             nkpt          16
           nkptgw3          0
           nkptgw4          1
           npweps3       2977
           npweps4          0
          npwsigx3          0
          npwsigx4      33059
           npwwfn       93337
            nstep         100
             nsym           8
           ntypat           2
              occ3     2.000000  2.000000  2.000000  2.000000  2.000000  2.000000
                       2.000000  2.000000  2.000000  2.000000  2.000000  2.000000
                       2.000000  2.000000  2.000000  2.000000  2.000000  2.000000
                       2.000000  2.000000  2.000000  2.000000  2.000000  2.000000
                       2.000000  2.000000  2.000000  2.000000  2.000000  2.000000
                       2.000000  2.000000  2.000000  2.000000  2.000000  2.000000
                       2.000000  2.000000  2.000000  2.000000  2.000000  2.000000
                       2.000000  2.000000  2.000000  2.000000  2.000000  2.000000
                       2.000000  2.000000  2.000000  2.000000  2.000000  2.000000
                       2.000000  2.000000  2.000000  2.000000  2.000000  2.000000
                       0.000000  0.000000  0.000000  0.000000  0.000000  0.000000
                       0.000000  0.000000  0.000000  0.000000  0.000000  0.000000
                       0.000000  0.000000  0.000000  0.000000  0.000000  0.000000
                       0.000000  0.000000  0.000000  0.000000  0.000000  0.000000
                       0.000000  0.000000  0.000000  0.000000  0.000000  0.000000
                       0.000000  0.000000  0.000000  0.000000  0.000000  0.000000
                       0.000000  0.000000  0.000000  0.000000  0.000000  0.000000
                       0.000000  0.000000  0.000000  0.000000  0.000000  0.000000
                       0.000000  0.000000  0.000000  0.000000  0.000000  0.000000
                       0.000000  0.000000  0.000000  0.000000  0.000000  0.000000
                       0.000000  0.000000  0.000000  0.000000  0.000000  0.000000
                       0.000000  0.000000  0.000000  0.000000  0.000000  0.000000
                       0.000000  0.000000  0.000000  0.000000  0.000000  0.000000
                       0.000000  0.000000  0.000000  0.000000  0.000000  0.000000
                       0.000000  0.000000  0.000000  0.000000  0.000000  0.000000
                       0.000000  0.000000  0.000000  0.000000  0.000000  0.000000
                       0.000000  0.000000  0.000000  0.000000  0.000000  0.000000
                       0.000000  0.000000  0.000000  0.000000  0.000000  0.000000
                       0.000000  0.000000  0.000000  0.000000  0.000000  0.000000
                       0.000000  0.000000  0.000000  0.000000  0.000000  0.000000
                       0.000000  0.000000  0.000000  0.000000  0.000000  0.000000
                       0.000000  0.000000  0.000000  0.000000  0.000000  0.000000
                       0.000000  0.000000  0.000000  0.000000  0.000000  0.000000
                       0.000000  0.000000  0.000000  0.000000  0.000000  0.000000
                       0.000000  0.000000  0.000000  0.000000  0.000000  0.000000
                       0.000000  0.000000  0.000000  0.000000  0.000000  0.000000
                       0.000000  0.000000  0.000000  0.000000  0.000000  0.000000
                       0.000000  0.000000  0.000000  0.000000  0.000000  0.000000
                       0.000000  0.000000  0.000000  0.000000  0.000000  0.000000
                       0.000000  0.000000  0.000000  0.000000  0.000000  0.000000
                       0.000000  0.000000  0.000000  0.000000  0.000000  0.000000
                       0.000000  0.000000  0.000000  0.000000  0.000000  0.000000
                       0.000000  0.000000  0.000000  0.000000  0.000000  0.000000
                       0.000000  0.000000  0.000000  0.000000  0.000000  0.000000
                       0.000000  0.000000  0.000000  0.000000  0.000000  0.000000
                       0.000000  0.000000  0.000000  0.000000  0.000000  0.000000
                       0.000000  0.000000  0.000000  0.000000  0.000000  0.000000
                       0.000000  0.000000  0.000000  0.000000  0.000000  0.000000
                       0.000000  0.000000  0.000000  0.000000  0.000000  0.000000
                       0.000000  0.000000  0.000000  0.000000  0.000000  0.000000
                       0.000000  0.000000  0.000000  0.000000  0.000000  0.000000
                       0.000000  0.000000  0.000000  0.000000  0.000000  0.000000
                       0.000000  0.000000  0.000000  0.000000  0.000000  0.000000
                       0.000000  0.000000  0.000000  0.000000  0.000000  0.000000
                       0.000000  0.000000  0.000000  0.000000  0.000000  0.000000
                       0.000000  0.000000  0.000000  0.000000  0.000000  0.000000
                       0.000000  0.000000  0.000000  0.000000  0.000000  0.000000
                       0.000000  0.000000  0.000000  0.000000  0.000000  0.000000
                       0.000000  0.000000  0.000000  0.000000  0.000000  0.000000
                       0.000000  0.000000  0.000000  0.000000  0.000000  0.000000
                       0.000000  0.000000  0.000000  0.000000  0.000000  0.000000
                       0.000000  0.000000  0.000000  0.000000  0.000000  0.000000
                       0.000000  0.000000  0.000000  0.000000  0.000000  0.000000
                       0.000000  0.000000  0.000000  0.000000  0.000000  0.000000
                       0.000000  0.000000  0.000000  0.000000  0.000000  0.000000
                       0.000000  0.000000  0.000000  0.000000  0.000000  0.000000
                       0.000000  0.000000  0.000000  0.000000  0.000000  0.000000
                       0.000000  0.000000  0.000000  0.000000  0.000000  0.000000
                       0.000000  0.000000  0.000000  0.000000  0.000000  0.000000
                       0.000000  0.000000  0.000000  0.000000  0.000000  0.000000
                       0.000000  0.000000  0.000000  0.000000  0.000000  0.000000
                       0.000000  0.000000  0.000000  0.000000  0.000000  0.000000
                       0.000000  0.000000  0.000000  0.000000  0.000000  0.000000
                       0.000000  0.000000  0.000000  0.000000  0.000000  0.000000
                       0.000000  0.000000  0.000000  0.000000  0.000000  0.000000
                       0.000000  0.000000  0.000000  0.000000  0.000000  0.000000
                       0.000000  0.000000  0.000000  0.000000  0.000000  0.000000
                       0.000000  0.000000  0.000000  0.000000  0.000000  0.000000
                       0.000000  0.000000  0.000000  0.000000  0.000000  0.000000
                       0.000000  0.000000  0.000000  0.000000  0.000000  0.000000
                       0.000000  0.000000  0.000000  0.000000  0.000000  0.000000
                       0.000000  0.000000  0.000000  0.000000  0.000000  0.000000
                       0.000000  0.000000  0.000000  0.000000  0.000000  0.000000
                       0.000000  0.000000  0.000000  0.000000  0.000000  0.000000
                       0.000000  0.000000  0.000000  0.000000  0.000000  0.000000
                       0.000000  0.000000  0.000000  0.000000  0.000000  0.000000
                       0.000000  0.000000  0.000000  0.000000  0.000000  0.000000
                       0.000000  0.000000  0.000000  0.000000  0.000000  0.000000
                       0.000000  0.000000  0.000000  0.000000  0.000000  0.000000
                       0.000000  0.000000  0.000000  0.000000  0.000000  0.000000
                       0.000000  0.000000  0.000000  0.000000  0.000000  0.000000
                       0.000000  0.000000  0.000000  0.000000  0.000000  0.000000
                       0.000000  0.000000  0.000000  0.000000  0.000000  0.000000
                       0.000000  0.000000  0.000000  0.000000  0.000000  0.000000
                       0.000000  0.000000  0.000000  0.000000  0.000000  0.000000
                       0.000000  0.000000  0.000000  0.000000  0.000000  0.000000
                       0.000000  0.000000  0.000000  0.000000  0.000000  0.000000
                       0.000000  0.000000  0.000000  0.000000  0.000000  0.000000
                       0.000000  0.000000  0.000000  0.000000  0.000000  0.000000
                       0.000000  0.000000  0.000000  0.000000  0.000000  0.000000
                       0.000000  0.000000  0.000000  0.000000  0.000000  0.000000
                       0.000000  0.000000  0.000000  0.000000  0.000000  0.000000
                       0.000000  0.000000  0.000000  0.000000  0.000000  0.000000
                       0.000000  0.000000  0.000000  0.000000  0.000000  0.000000
                       0.000000  0.000000  0.000000  0.000000  0.000000  0.000000
                       0.000000  0.000000  0.000000  0.000000  0.000000  0.000000
                       0.000000  0.000000  0.000000  0.000000  0.000000  0.000000
                       0.000000  0.000000  0.000000  0.000000  0.000000  0.000000
                       0.000000  0.000000  0.000000  0.000000  0.000000  0.000000
                       0.000000  0.000000  0.000000  0.000000  0.000000  0.000000
              occ4     2.000000  2.000000  2.000000  2.000000  2.000000  2.000000
                       2.000000  2.000000  2.000000  2.000000  2.000000  2.000000
                       2.000000  2.000000  2.000000  2.000000  2.000000  2.000000
                       2.000000  2.000000  2.000000  2.000000  2.000000  2.000000
                       2.000000  2.000000  2.000000  2.000000  2.000000  2.000000
                       2.000000  2.000000  2.000000  2.000000  2.000000  2.000000
                       2.000000  2.000000  2.000000  2.000000  2.000000  2.000000
                       2.000000  2.000000  2.000000  2.000000  2.000000  2.000000
                       2.000000  2.000000  2.000000  2.000000  2.000000  2.000000
                       2.000000  2.000000  2.000000  2.000000  2.000000  2.000000
                       0.000000  0.000000  0.000000  0.000000  0.000000  0.000000
                       0.000000  0.000000  0.000000  0.000000  0.000000  0.000000
                       0.000000  0.000000  0.000000  0.000000  0.000000  0.000000
                       0.000000  0.000000  0.000000  0.000000  0.000000  0.000000
                       0.000000  0.000000  0.000000  0.000000  0.000000  0.000000
                       0.000000  0.000000  0.000000  0.000000  0.000000  0.000000
                       0.000000  0.000000  0.000000  0.000000  0.000000  0.000000
                       0.000000  0.000000  0.000000  0.000000  0.000000  0.000000
                       0.000000  0.000000  0.000000  0.000000  0.000000  0.000000
                       0.000000  0.000000  0.000000  0.000000  0.000000  0.000000
                       0.000000  0.000000  0.000000  0.000000  0.000000  0.000000
                       0.000000  0.000000  0.000000  0.000000  0.000000  0.000000
                       0.000000  0.000000  0.000000  0.000000  0.000000  0.000000
                       0.000000  0.000000  0.000000  0.000000  0.000000  0.000000
                       0.000000  0.000000  0.000000  0.000000  0.000000  0.000000
                       0.000000  0.000000  0.000000  0.000000  0.000000  0.000000
                       0.000000  0.000000  0.000000  0.000000  0.000000  0.000000
                       0.000000  0.000000  0.000000  0.000000  0.000000  0.000000
                       0.000000  0.000000  0.000000  0.000000  0.000000  0.000000
                       0.000000  0.000000  0.000000  0.000000  0.000000  0.000000
                       0.000000  0.000000  0.000000  0.000000  0.000000  0.000000
                       0.000000  0.000000  0.000000  0.000000  0.000000  0.000000
                       0.000000  0.000000  0.000000  0.000000  0.000000  0.000000
                       0.000000  0.000000  0.000000  0.000000  0.000000  0.000000
                       0.000000  0.000000  0.000000  0.000000  0.000000  0.000000
                       0.000000  0.000000  0.000000  0.000000  0.000000  0.000000
                       0.000000  0.000000  0.000000  0.000000  0.000000  0.000000
                       0.000000  0.000000  0.000000  0.000000  0.000000  0.000000
                       0.000000  0.000000  0.000000  0.000000  0.000000  0.000000
                       0.000000  0.000000  0.000000  0.000000  0.000000  0.000000
                       0.000000  0.000000  0.000000  0.000000  0.000000  0.000000
                       0.000000  0.000000  0.000000  0.000000  0.000000  0.000000
                       0.000000  0.000000  0.000000  0.000000  0.000000  0.000000
                       0.000000  0.000000  0.000000  0.000000  0.000000  0.000000
                       0.000000  0.000000  0.000000  0.000000  0.000000  0.000000
                       0.000000  0.000000  0.000000  0.000000  0.000000  0.000000
                       0.000000  0.000000  0.000000  0.000000  0.000000  0.000000
                       0.000000  0.000000  0.000000  0.000000  0.000000  0.000000
                       0.000000  0.000000  0.000000  0.000000  0.000000  0.000000
                       0.000000  0.000000  0.000000  0.000000  0.000000  0.000000
                       0.000000  0.000000  0.000000  0.000000  0.000000  0.000000
                       0.000000  0.000000  0.000000  0.000000  0.000000  0.000000
                       0.000000  0.000000  0.000000  0.000000  0.000000  0.000000
                       0.000000  0.000000  0.000000  0.000000  0.000000  0.000000
                       0.000000  0.000000  0.000000  0.000000  0.000000  0.000000
                       0.000000  0.000000  0.000000  0.000000  0.000000  0.000000
                       0.000000  0.000000  0.000000  0.000000  0.000000  0.000000
                       0.000000  0.000000  0.000000  0.000000  0.000000  0.000000
                       0.000000  0.000000  0.000000  0.000000  0.000000  0.000000
                       0.000000  0.000000  0.000000  0.000000  0.000000  0.000000
                       0.000000  0.000000  0.000000  0.000000  0.000000  0.000000
                       0.000000  0.000000  0.000000  0.000000  0.000000  0.000000
                       0.000000  0.000000  0.000000  0.000000  0.000000  0.000000
                       0.000000  0.000000  0.000000  0.000000  0.000000  0.000000
                       0.000000  0.000000  0.000000  0.000000  0.000000  0.000000
                       0.000000  0.000000  0.000000  0.000000  0.000000  0.000000
                       0.000000  0.000000  0.000000  0.000000  0.000000  0.000000
                       0.000000  0.000000  0.000000  0.000000  0.000000  0.000000
                       0.000000  0.000000  0.000000  0.000000  0.000000  0.000000
                       0.000000  0.000000  0.000000  0.000000  0.000000  0.000000
                       0.000000  0.000000  0.000000  0.000000  0.000000  0.000000
                       0.000000  0.000000  0.000000  0.000000  0.000000  0.000000
                       0.000000  0.000000  0.000000  0.000000  0.000000  0.000000
                       0.000000  0.000000  0.000000  0.000000  0.000000  0.000000
                       0.000000  0.000000  0.000000  0.000000  0.000000  0.000000
                       0.000000  0.000000  0.000000  0.000000  0.000000  0.000000
                       0.000000  0.000000  0.000000  0.000000  0.000000  0.000000
                       0.000000  0.000000  0.000000  0.000000  0.000000  0.000000
                       0.000000  0.000000  0.000000  0.000000  0.000000  0.000000
                       0.000000  0.000000  0.000000  0.000000  0.000000  0.000000
                       0.000000  0.000000  0.000000  0.000000  0.000000  0.000000
                       0.000000  0.000000  0.000000  0.000000  0.000000  0.000000
                       0.000000  0.000000  0.000000  0.000000  0.000000  0.000000
                       0.000000  0.000000  0.000000  0.000000  0.000000  0.000000
                       0.000000  0.000000  0.000000  0.000000  0.000000  0.000000
                       0.000000  0.000000  0.000000  0.000000  0.000000  0.000000
                       0.000000  0.000000  0.000000  0.000000  0.000000  0.000000
                       0.000000  0.000000  0.000000  0.000000  0.000000  0.000000
                       0.000000  0.000000  0.000000  0.000000  0.000000  0.000000
                       0.000000  0.000000  0.000000  0.000000  0.000000  0.000000
                       0.000000  0.000000  0.000000  0.000000  0.000000  0.000000
                       0.000000  0.000000  0.000000  0.000000  0.000000  0.000000
                       0.000000  0.000000  0.000000  0.000000  0.000000  0.000000
                       0.000000  0.000000  0.000000  0.000000  0.000000  0.000000
                       0.000000  0.000000  0.000000  0.000000  0.000000  0.000000
                       0.000000  0.000000  0.000000  0.000000  0.000000  0.000000
                       0.000000  0.000000  0.000000  0.000000  0.000000  0.000000
                       0.000000  0.000000  0.000000  0.000000  0.000000  0.000000
                       0.000000  0.000000  0.000000  0.000000  0.000000  0.000000
                       0.000000  0.000000  0.000000  0.000000  0.000000  0.000000
                       0.000000  0.000000  0.000000  0.000000  0.000000  0.000000
                       0.000000  0.000000  0.000000  0.000000  0.000000  0.000000
                       0.000000  0.000000  0.000000  0.000000  0.000000  0.000000
                       0.000000  0.000000  0.000000  0.000000  0.000000  0.000000
                       0.000000  0.000000  0.000000  0.000000  0.000000  0.000000
                       0.000000  0.000000  0.000000  0.000000  0.000000  0.000000
                       0.000000  0.000000  0.000000  0.000000  0.000000  0.000000
                       0.000000  0.000000  0.000000  0.000000  0.000000  0.000000
                       0.000000  0.000000  0.000000  0.000000  0.000000  0.000000
                       0.000000  0.000000  0.000000  0.000000  0.000000  0.000000
                       0.000000  0.000000  0.000000  0.000000  0.000000  0.000000
                       0.000000  0.000000  0.000000  0.000000  0.000000  0.000000
                       0.000000  0.000000  0.000000  0.000000  0.000000  0.000000
                       0.000000  0.000000  0.000000  0.000000  0.000000  0.000000
                       0.000000  0.000000  0.000000  0.000000  0.000000  0.000000
                       0.000000  0.000000  0.000000  0.000000  0.000000  0.000000
                       0.000000  0.000000  0.000000  0.000000  0.000000  0.000000
                       0.000000  0.000000  0.000000  0.000000  0.000000  0.000000
                       0.000000  0.000000  0.000000  0.000000  0.000000  0.000000
                       0.000000  0.000000  0.000000  0.000000  0.000000  0.000000
                       0.000000  0.000000  0.000000  0.000000  0.000000  0.000000
                       0.000000  0.000000  0.000000  0.000000  0.000000  0.000000
                       0.000000  0.000000  0.000000  0.000000  0.000000  0.000000
                       0.000000  0.000000  0.000000  0.000000  0.000000  0.000000
                       0.000000  0.000000  0.000000  0.000000  0.000000  0.000000
                       0.000000  0.000000  0.000000  0.000000  0.000000  0.000000
                       0.000000  0.000000  0.000000  0.000000  0.000000  0.000000
                       0.000000  0.000000  0.000000  0.000000  0.000000  0.000000
                       0.000000  0.000000  0.000000  0.000000  0.000000  0.000000
                       0.000000  0.000000  0.000000  0.000000  0.000000  0.000000
                       0.000000  0.000000  0.000000  0.000000  0.000000  0.000000
                       0.000000  0.000000  0.000000  0.000000  0.000000  0.000000
                       0.000000  0.000000  0.000000  0.000000  0.000000  0.000000
                       0.000000  0.000000  0.000000  0.000000  0.000000  0.000000
                       0.000000  0.000000  0.000000  0.000000  0.000000  0.000000
                       0.000000  0.000000  0.000000  0.000000  0.000000  0.000000
                       0.000000  0.000000  0.000000  0.000000  0.000000  0.000000
                       0.000000  0.000000  0.000000  0.000000  0.000000  0.000000
                       0.000000  0.000000  0.000000  0.000000  0.000000  0.000000
                       0.000000  0.000000  0.000000  0.000000  0.000000  0.000000
                       0.000000  0.000000  0.000000  0.000000  0.000000  0.000000
                       0.000000  0.000000  0.000000  0.000000  0.000000  0.000000
                       0.000000  0.000000  0.000000  0.000000  0.000000  0.000000
                       0.000000  0.000000  0.000000  0.000000  0.000000  0.000000
                       0.000000  0.000000  0.000000  0.000000  0.000000  0.000000
                       0.000000  0.000000  0.000000  0.000000  0.000000  0.000000
                       0.000000  0.000000  0.000000  0.000000  0.000000  0.000000
                       0.000000  0.000000  0.000000  0.000000  0.000000  0.000000
                       0.000000  0.000000  0.000000  0.000000  0.000000  0.000000
                       0.000000  0.000000  0.000000  0.000000  0.000000  0.000000
                       0.000000  0.000000  0.000000  0.000000  0.000000  0.000000
                       0.000000  0.000000  0.000000  0.000000  0.000000  0.000000
                       0.000000  0.000000  0.000000  0.000000  0.000000  0.000000
                       0.000000  0.000000  0.000000  0.000000  0.000000  0.000000
                       0.000000  0.000000  0.000000  0.000000  0.000000  0.000000
                       0.000000  0.000000  0.000000  0.000000  0.000000  0.000000
                       0.000000  0.000000  0.000000  0.000000  0.000000  0.000000
                       0.000000  0.000000  0.000000  0.000000  0.000000  0.000000
                       0.000000  0.000000  0.000000  0.000000  0.000000  0.000000
                       0.000000  0.000000  0.000000  0.000000  0.000000  0.000000
                       0.000000  0.000000  0.000000  0.000000  0.000000  0.000000
                       0.000000  0.000000  0.000000  0.000000  0.000000  0.000000
                       0.000000  0.000000  0.000000  0.000000  0.000000  0.000000
                       0.000000  0.000000  0.000000  0.000000  0.000000  0.000000
                       0.000000  0.000000  0.000000  0.000000  0.000000  0.000000
        optdriver3          3
        optdriver4          4
           ppmfrq3     6.13713734E-01 Hartree
           ppmfrq4     0.00000000E+00 Hartree
          spgroup          57
           symrel      1  0  0   0  1  0   0  0  1      -1  0  0   0 -1  0   0  0 -1
                      -1  0  0   0  1  0   0  0 -1       1  0  0   0 -1  0   0  0  1
                      -1  0  0   0 -1  0   0  0  1       1  0  0   0  1  0   0  0 -1
                       1  0  0   0 -1  0   0  0 -1      -1  0  0   0  1  0   0  0  1
            tnons      0.0000000  0.0000000  0.0000000    -0.0000000 -0.0000000  0.0000000
                       0.5000000  0.5000000  0.0000000     0.5000000  0.5000000  0.0000000
                      -0.0000000  0.5000000  0.0000000     0.0000000  0.5000000  0.0000000
                       0.5000000 -0.0000000  0.0000000     0.5000000  0.0000000  0.0000000
           toldfe      1.00000000E-08 Hartree
           tolsym      1.00000000E-04
            typat      1  1  1  1  1  1  1  1  1  1  1  1  1  1  1  1  2  2  2  2
                       2  2  2  2
          usekden           1
          vcutgeo      1.0000000  1.0000000  0.0000000
              wtk        0.02778    0.05556    0.05556    0.02778    0.05556    0.11111
                         0.11111    0.05556    0.05556    0.11111    0.11111    0.05556
                         0.02778    0.05556    0.05556    0.02778
           xangst      1.9332403955E+00  4.2297149319E+00  1.9368575677E+01
                       2.4928378933E+00  4.0018016603E-01  2.0631424323E+01
                       4.1462795400E+00  4.0018016603E-01  2.0631424323E+01
                       2.7979874887E-01  4.2297149319E+00  1.9368575677E+01
                       2.7979874887E-01  1.9147673829E+00  2.0631424323E+01
                       4.1462795400E+00  2.7151277150E+00  1.9368575677E+01
                       2.4928378933E+00  2.7151277150E+00  1.9368575677E+01
                       1.9332403955E+00  1.9147673829E+00  2.0631424323E+01
                       1.9110075072E+00  4.1897715104E+00  2.1793616530E+01
                       2.5150707817E+00  4.4012358755E-01  1.8206383470E+01
                       4.1240466516E+00  4.4012358755E-01  1.8206383470E+01
                       3.0203163722E-01  4.1897715104E+00  2.1793616530E+01
                       3.0203163722E-01  1.8748239614E+00  1.8206383470E+01
                       4.1240466516E+00  2.7550711365E+00  2.1793616530E+01
                       2.5150707817E+00  2.7550711365E+00  2.1793616530E+01
                       1.9110075072E+00  1.8748239614E+00  1.8206383470E+01
                       4.4327310661E+00  2.3388795412E+00  1.6971354245E+01
                      -6.6527773207E-03  2.2910155568E+00  2.3028645755E+01
                       2.2196919217E+00  2.2910155568E+00  2.3028645755E+01
                       2.2063863671E+00  2.3388795412E+00  1.6971354245E+01
                       2.2063863671E+00  2.3931992201E-02  2.3028645755E+01
                       2.2196919217E+00  4.6059631057E+00  1.6971354245E+01
                      -6.6527773207E-03  4.6059631057E+00  1.6971354245E+01
                       4.4327310661E+00  2.3931992201E-02  2.3028645755E+01
            xcart      3.6532948966E+00  7.9930028415E+00  3.6601303613E+01
                       4.7107809120E+00  7.5623091761E-01  3.8987741702E+01
                       7.8353328009E+00  7.5623091761E-01  3.8987741702E+01
                       5.2874300768E-01  7.9930028415E+00  3.6601303613E+01
                       5.2874300768E-01  3.6183859619E+00  3.8987741702E+01
                       7.8353328009E+00  5.1308477972E+00  3.6601303613E+01
                       4.7107809120E+00  5.1308477972E+00  3.6601303613E+01
                       3.6532948966E+00  3.6183859619E+00  3.8987741702E+01
                       3.6112808264E+00  7.9175207140E+00  4.1183966687E+01
                       4.7527949822E+00  8.3171304510E-01  3.4405078628E+01
                       7.7933187308E+00  8.3171304510E-01  3.4405078628E+01
                       5.7075707781E-01  7.9175207140E+00  4.1183966687E+01
                       5.7075707781E-01  3.5429038344E+00  3.4405078628E+01
                       7.7933187308E+00  5.2063299246E+00  4.1183966687E+01
                       4.7527949822E+00  5.2063299246E+00  4.1183966687E+01
                       3.6112808264E+00  3.5429038344E+00  3.4405078628E+01
                       8.3766477357E+00  4.4198417906E+00  3.2071211627E+01
                      -1.2571927159E-02  4.3293919685E+00  4.3517833688E+01
                       4.1946098314E+00  4.3293919685E+00  4.3517833688E+01
                       4.1694659772E+00  4.4198417906E+00  3.2071211627E+01
                       4.1694659772E+00  4.5224911075E-02  4.3517833688E+01
                       4.1946098314E+00  8.7040088480E+00  3.2071211627E+01
                      -1.2571927159E-02  8.7040088480E+00  3.2071211627E+01
                       8.3766477357E+00  4.5224911075E-02  4.3517833688E+01
             xred      4.3678404884E-01  9.1356604036E-01  4.8421439192E-01
                       5.6321595114E-01  8.6433959639E-02  5.1578560808E-01
                       9.3678404884E-01  8.6433959639E-02  5.1578560808E-01
                       6.3215951144E-02  9.1356604036E-01  4.8421439192E-01
                       6.3215951144E-02  4.1356604036E-01  5.1578560808E-01
                       9.3678404884E-01  5.8643395964E-01  4.8421439192E-01
                       5.6321595114E-01  5.8643395964E-01  4.8421439192E-01
                       4.3678404884E-01  4.1356604036E-01  5.1578560808E-01
                       4.3176089134E-01  9.0493875601E-01  5.4484041325E-01
                       5.6823910864E-01  9.5061243990E-02  4.5515958675E-01
                       9.3176089134E-01  9.5061243990E-02  4.5515958675E-01
                       6.8239108643E-02  9.0493875601E-01  5.4484041325E-01
                       6.8239108643E-02  4.0493875601E-01  4.5515958675E-01
                       9.3176089134E-01  5.9506124399E-01  5.4484041325E-01
                       5.6823910864E-01  5.9506124399E-01  5.4484041325E-01
                       4.3176089134E-01  4.0493875601E-01  4.5515958675E-01
                       1.0015030862E+00  5.0516901392E-01  4.2428385612E-01
                      -1.5030862282E-03  4.9483098608E-01  5.7571614388E-01
                       5.0150308622E-01  4.9483098608E-01  5.7571614388E-01
                       4.9849691377E-01  5.0516901392E-01  4.2428385612E-01
                       4.9849691377E-01  5.1690139182E-03  5.7571614388E-01
                       5.0150308622E-01  9.9483098608E-01  4.2428385612E-01
                      -1.5030862282E-03  9.9483098608E-01  4.2428385612E-01
                       1.0015030862E+00  5.1690139182E-03  5.7571614388E-01
            znucl        6.00000    9.00000
 
================================================================================
 
 chkinp: Checking input parameters for consistency, jdtset=   3.
 
 chkinp: Checking input parameters for consistency, jdtset=   4.
 
================================================================================
== DATASET  3 ==================================================================
-   mpi_nproc: 96, omp_nthreads: -1 (-1 if OMP is not activated)
 

--- !DatasetInfo
iteration_state: {dtset: 3, }
dimensions: {natom: 24, nkpt: 16, mband: 660, nsppol: 1, nspinor: 1, nspden: 1, mpw: 93588, }
cutoff_energies: {ecut:  50.0, pawecutdg:  -1.0, }
electrons: {nelect:   1.20000000E+02, charge:   0.00000000E+00, occopt:   1.00000000E+00, tsmear:   1.00000000E-02, }
meta: {optdriver: 3, gwcalctyp: 0, }
...

 mkfilename : getwfk/=0, take file _WFK from output of DATASET   2.
 
 SCREENING: Calculation of the susceptibility and dielectric matrices 
 
 Based on a program developped by R.W. Godby, V. Olevano, G. Onida, and L. Reining.
 Incorporated in ABINIT by V. Olevano, G.-M. Rignanese, and M. Torrent.
.Using single precision arithmetic ; gwpc =  4
 
 Real(R)+Recip(G) space primitive vectors, cartesian coordinates (Bohr,Bohr^-1):
 R(1)=  8.3640758  0.0000000  0.0000000  G(1)=  0.1195589  0.0000000  0.0000000
 R(2)=  0.0000000  8.7492338  0.0000000  G(2)=  0.0000000  0.1142957  0.0000000
 R(3)=  0.0000000  0.0000000 75.5890453  G(3)=  0.0000000  0.0000000  0.0132294
 Unit cell volume ucvol=  5.5315500E+03 bohr^3
 Angles (23,13,12)=  9.00000000E+01  9.00000000E+01  9.00000000E+01 degrees
 
--- Pseudopotential description ------------------------------------------------
- pspini: atom type   1  psp file is ../6c.4.hgh
- pspatm: opening atomic psp file    ../6c.4.hgh
- Hartwigsen-Goedecker-Hutter psp for C,  from PRB58, 3641 (1998)
-  6.00000   4.00000     10605                znucl, zion, pspdat
    3    1    1    0      2001   0.00000      pspcod,pspxc,lmax,lloc,mmax,r2well
 rloc=   0.3488300
 cc1 =  -8.5137710; cc2 =   1.2284320; cc3 =   0.0000000; cc4 =   0.0000000
 rrs =   0.3045530; h11s=   9.5228420; h22s=   0.0000000; h33s=   0.0000000
 rrp =   0.2326770; h11p=   0.0000000; h22p=   0.0000000; h33p=   0.0000000
                    k11p=   0.0041040; k22p=   0.0000000; k33p=   0.0000000
-  Local part computed in reciprocal space.
 
 pspatm : COMMENT -
  the projectors are not normalized,
  so that the KB energies are not consistent with 
  definition in PRB44, 8503 (1991). 
  However, this does not influence the results obtained hereafter.
  pspatm : epsatm=   -0.16969744
         --- l  ekb(1:nproj) -->
             0    0.953587
 pspatm: atomic psp has been read  and splines computed
 
- pspini: atom type   2  psp file is ../9f.7.hgh
- pspatm: opening atomic psp file    ../9f.7.hgh
- Hartwigsen-Goedecker-Hutter psp for F,  from PRB58, 3641 (1998)
-  9.00000   7.00000     10605                znucl, zion, pspdat
    3    1    1    0      2001   0.00000      pspcod,pspxc,lmax,lloc,mmax,r2well
 rloc=   0.2185250
 cc1 = -21.3073610; cc2 =   3.0728690; cc3 =   0.0000000; cc4 =   0.0000000
 rrs =   0.1955670; h11s=  23.5849420; h22s=   0.0000000; h33s=   0.0000000
 rrp =   0.1742680; h11p=   0.0000000; h22p=   0.0000000; h33p=   0.0000000
                    k11p=   0.0151060; k22p=   0.0000000; k33p=   0.0000000
-  Local part computed in reciprocal space.
 
 pspatm : COMMENT -
  the projectors are not normalized,
  so that the KB energies are not consistent with 
  definition in PRB44, 8503 (1991). 
  However, this does not influence the results obtained hereafter.
  pspatm : epsatm=    0.11349172
         --- l  ekb(1:nproj) -->
             0    0.625355
 pspatm: atomic psp has been read  and splines computed
 
  -2.16867041E+02                                ecore*ucvol(ha*bohr**3)
--------------------------------------------------------------------------------
 
 ==== K-mesh for the wavefunctions ====
 Number of points in the irreducible wedge :    16
 Reduced coordinates and weights : 
 
     1)     0.00000000E+00  0.00000000E+00  0.00000000E+00       0.02778
     2)     1.66666667E-01  0.00000000E+00  0.00000000E+00       0.05556
     3)     3.33333333E-01  0.00000000E+00  0.00000000E+00       0.05556
     4)     5.00000000E-01  0.00000000E+00  0.00000000E+00       0.02778
     5)     0.00000000E+00  1.66666667E-01  0.00000000E+00       0.05556
     6)     1.66666667E-01  1.66666667E-01  0.00000000E+00       0.11111
     7)     3.33333333E-01  1.66666667E-01  0.00000000E+00       0.11111
     8)     5.00000000E-01  1.66666667E-01  0.00000000E+00       0.05556
     9)     0.00000000E+00  3.33333333E-01  0.00000000E+00       0.05556
    10)     1.66666667E-01  3.33333333E-01  0.00000000E+00       0.11111
    11)     3.33333333E-01  3.33333333E-01  0.00000000E+00       0.11111
    12)     5.00000000E-01  3.33333333E-01  0.00000000E+00       0.05556
    13)     0.00000000E+00  5.00000000E-01  0.00000000E+00       0.02778
    14)     1.66666667E-01  5.00000000E-01  0.00000000E+00       0.05556
    15)     3.33333333E-01  5.00000000E-01  0.00000000E+00       0.05556
    16)     5.00000000E-01  5.00000000E-01  0.00000000E+00       0.02778
 
 Together with  8 symmetry operations and time-reversal symmetry 
 yields    36 points in the full Brillouin Zone.
 
 
 ==== Q-mesh for the screening function ====
 Number of points in the irreducible wedge :    16
 Reduced coordinates and weights : 
 
     1)     0.00000000E+00  0.00000000E+00  0.00000000E+00       0.02778
     2)     1.66666667E-01  0.00000000E+00  0.00000000E+00       0.05556
     3)     3.33333333E-01  0.00000000E+00  0.00000000E+00       0.05556
     4)     5.00000000E-01  0.00000000E+00  0.00000000E+00       0.02778
     5)     0.00000000E+00  1.66666667E-01  0.00000000E+00       0.05556
     6)     1.66666667E-01  1.66666667E-01  0.00000000E+00       0.11111
     7)     3.33333333E-01  1.66666667E-01  0.00000000E+00       0.11111
     8)     5.00000000E-01  1.66666667E-01  0.00000000E+00       0.05556
     9)     0.00000000E+00  3.33333333E-01  0.00000000E+00       0.05556
    10)     1.66666667E-01  3.33333333E-01  0.00000000E+00       0.11111
    11)     3.33333333E-01  3.33333333E-01  0.00000000E+00       0.11111
    12)     5.00000000E-01  3.33333333E-01  0.00000000E+00       0.05556
    13)     0.00000000E+00  5.00000000E-01  0.00000000E+00       0.02778
    14)     1.66666667E-01  5.00000000E-01  0.00000000E+00       0.05556
    15)     3.33333333E-01  5.00000000E-01  0.00000000E+00       0.05556
    16)     5.00000000E-01  5.00000000E-01  0.00000000E+00       0.02778
 
 Together with  8 symmetry operations and time-reversal symmetry 
 yields    36 points in the full Brillouin Zone.
 
 
 setmesh: FFT mesh size selected  =    36x   40x  320
          total number of points  =       460800
 
 
- screening: taking advantage of time-reversal symmetry 
- Maximum band index for partially occupied states nbvw = 60
- Remaining bands to be divided among processors   nbcw = 600
- Number of bands treated by each node ~6
 
 Number of electrons calculated from density =  120.0000; Expected =  120.0000
 average of density, n =  0.021694
 r_s =    2.2243
 omega_plasma =   14.2077 [eV]
 
 
 calculating chi0 at frequencies [eV] :
  1    0.000000E+00    0.000000E+00
  2    0.000000E+00    1.670000E+01
 
 
--------------------------------------------------------------------------------
  q-point number  1        q = ( 0.000000, 0.000000, 0.000000) [r.l.u.]
--------------------------------------------------------------------------------
  chi0(G,G') at the    1 th omega   0.0000   0.0000 [eV]
       1       2       3       4       5       6       7       8       9
    1  -0.000   0.000  -0.000  -0.000   0.000   0.000  -0.000  -0.000   0.000
        0.000  -0.000   0.000   0.000  -0.000  -0.000   0.000   0.000   0.000
 
    2   0.000  -1.998   1.722   3.769  -2.760  -4.860   2.916   5.005  -2.251
        0.000   0.000  -0.000  -0.000   0.000   0.000  -0.000   0.000  -0.000
 
  chi0(G,G') at the    2 th omega   0.0000  16.7000 [eV]
       1       2       3       4       5       6       7       8       9
    1  -0.000   0.000  -0.000  -0.000   0.000   0.000  -0.000  -0.000   0.000
        0.000  -0.000   0.000   0.000  -0.000  -0.000  -0.000   0.000   0.000
 
    2   0.000  -0.774   0.637   1.461  -0.964  -1.856   0.912   1.841  -0.532
        0.000   0.000  -0.000  -0.000   0.000   0.000  -0.000   0.000  -0.000
 
 For q-point:  0.000010 0.000020 0.000030
  dielectric constant =   1.0004
  dielectric constant without local fields =   1.0004
 
  Average fulfillment of the sum rule on Im[epsilon] for q-point    1 :    155.07  [%]
  Heads and wings of the symmetrical epsilon^-1(G,G') 
 
   Upper and lower wings at the    1 th omega   0.0000   0.0000 [eV]
       1       2       3       4       5       6       7       8       9
      1.000   0.001  -0.001  -0.000   0.000   0.000  -0.000  -0.000   0.000
     -0.000  -0.000   0.000   0.000  -0.000  -0.000  -0.000   0.000   0.000
       1       2       3       4       5       6       7       8       9
      1.000   0.001  -0.001  -0.000   0.000   0.000  -0.000  -0.000   0.000
     -0.000   0.000  -0.000  -0.000   0.000   0.000   0.000  -0.000  -0.000
 
 
   Upper and lower wings at the    2 th omega   0.0000  16.7000 [eV]
       1       2       3       4       5       6       7       8       9
      1.000   0.001  -0.001  -0.000   0.000   0.000  -0.000  -0.000   0.000
      0.000  -0.000   0.000   0.000  -0.000  -0.000  -0.000   0.000   0.000
       1       2       3       4       5       6       7       8       9
      1.000   0.001  -0.001  -0.000   0.000   0.000  -0.000  -0.000   0.000
      0.000   0.000  -0.000  -0.000   0.000   0.000   0.000  -0.000  -0.000
 
 
 
 
--------------------------------------------------------------------------------
  q-point number  2        q = ( 0.166667, 0.000000, 0.000000) [r.l.u.]
--------------------------------------------------------------------------------
  chi0(G,G') at the    1 th omega   0.0000   0.0000 [eV]
       1       2       3       4       5       6       7       8       9
    1  -4.706   4.526   4.526  -4.017  -4.017   3.265   3.265  -2.392  -2.392
        0.000   0.000   0.000  -0.000   0.000   0.000  -0.000  -0.000  -0.000
 
    2   4.526  -6.592  -2.396   8.080   0.679  -8.589   0.317   7.953  -0.523
       -0.000   0.000  -0.000   0.000  -0.000  -0.000   0.000   0.000  -0.000
 
  chi0(G,G') at the    2 th omega   0.0000  16.7000 [eV]
       1       2       3       4       5       6       7       8       9
    1  -1.636   1.561   1.561  -1.351  -1.351   1.045   1.045  -0.697  -0.697
        0.000  -0.000   0.000  -0.000   0.000   0.000  -0.000  -0.000   0.000
 
    2   1.561  -2.390  -0.732   2.984   0.109  -3.158   0.185   2.833  -0.144
        0.000   0.000  -0.000   0.000   0.000  -0.000   0.000   0.000  -0.000
 
  Average fulfillment of the sum rule on Im[epsilon] for q-point    2 :     77.07  [%]
 
 
--------------------------------------------------------------------------------
  q-point number  3        q = ( 0.333333, 0.000000, 0.000000) [r.l.u.]
--------------------------------------------------------------------------------
  chi0(G,G') at the    1 th omega   0.0000   0.0000 [eV]
       1       2       3       4       5       6       7       8       9
    1 -16.200  15.566  15.566 -13.774 -13.774  11.132  11.132  -8.074  -8.074
        0.000  -0.000   0.000  -0.000   0.000   0.000  -0.000  -0.000   0.000
 
    2  15.566 -17.847 -12.366  18.666   8.905 -17.744  -5.780  15.164   3.393
        0.000   0.000  -0.000   0.000  -0.000  -0.000   0.000   0.000  -0.000
 
  chi0(G,G') at the    2 th omega   0.0000  16.7000 [eV]
       1       2       3       4       5       6       7       8       9
    1  -6.220   5.934   5.934  -5.130  -5.130   3.957   3.957  -2.624  -2.624
        0.000   0.000   0.000  -0.000   0.000   0.000  -0.000  -0.000   0.000
 
    2   5.934  -6.919  -4.557   7.253   3.096  -6.801  -1.822   5.603   0.907
       -0.000   0.000  -0.000   0.000  -0.000  -0.000   0.000   0.000  -0.000
 
  Average fulfillment of the sum rule on Im[epsilon] for q-point    3 :     72.57  [%]
 
 
--------------------------------------------------------------------------------
  q-point number  4        q = ( 0.500000, 0.000000, 0.000000) [r.l.u.]
--------------------------------------------------------------------------------
  chi0(G,G') at the    1 th omega   0.0000   0.0000 [eV]
       1       2       3       4       5       6       7       8       9
    1 -29.867  28.660  28.660 -25.253 -25.253  20.238  20.238 -14.452 -14.452
        0.000  -0.000   0.000  -0.000   0.000   0.000  -0.000   0.000   0.000
 
    2  28.660 -31.286 -24.044  31.326  18.338 -28.653 -12.519  23.662   7.424
        0.000   0.000  -0.000   0.000  -0.000  -0.000   0.000   0.000  -0.000
 
  chi0(G,G') at the    2 th omega   0.0000  16.7000 [eV]
       1       2       3       4       5       6       7       8       9
    1 -12.940  12.338  12.338 -10.647 -10.647   8.181   8.181  -5.381  -5.381
        0.000  -0.000   0.000  -0.000   0.000   0.000  -0.000  -0.000   0.000
 
    2  12.338 -13.564 -10.137  13.515   7.421 -12.133  -4.685   9.634   2.351
        0.000   0.000  -0.000   0.000  -0.000  -0.000   0.000   0.000  -0.000
 
  Average fulfillment of the sum rule on Im[epsilon] for q-point    4 :     71.31  [%]
 
 
--------------------------------------------------------------------------------
  q-point number  5        q = ( 0.000000, 0.166667, 0.000000) [r.l.u.]
--------------------------------------------------------------------------------
  chi0(G,G') at the    1 th omega   0.0000   0.0000 [eV]
       1       2       3       4       5       6       7       8       9
    1  -4.046   3.879   3.879  -3.409  -3.409   2.720   2.720  -1.930  -1.930
        0.000   0.000   0.000  -0.000   0.000   0.000  -0.000  -0.000  -0.000
 
    2   3.879  -5.910  -1.809   7.393   0.170  -7.930   0.737   7.353  -0.848
       -0.000   0.000  -0.000   0.000  -0.000  -0.000   0.000   0.000  -0.000
 
  chi0(G,G') at the    2 th omega   0.0000  16.7000 [eV]
       1       2       3       4       5       6       7       8       9
    1  -1.495   1.426   1.426  -1.231  -1.231   0.946   0.946  -0.624  -0.624
        0.000   0.000   0.000  -0.000   0.000   0.000  -0.000  -0.000   0.000
 
    2   1.426  -2.248  -0.612   2.846   0.012  -3.034   0.255   2.731  -0.188
       -0.000   0.000  -0.000   0.000  -0.000  -0.000   0.000   0.000  -0.000
 
  Average fulfillment of the sum rule on Im[epsilon] for q-point    5 :     77.36  [%]
 
 
--------------------------------------------------------------------------------
  q-point number  6        q = ( 0.166667, 0.166667, 0.000000) [r.l.u.]
--------------------------------------------------------------------------------
  chi0(G,G') at the    1 th omega   0.0000   0.0000 [eV]
       1       2       3       4       5       6       7       8       9
    1  -8.477   8.139   8.139  -7.184  -7.184   5.779   5.779  -4.159  -4.159
        0.000   0.000   0.000  -0.000   0.000   0.000  -0.000  -0.000   0.000
 
    2   8.139 -10.236  -5.678  11.453   3.390 -11.438  -1.683  10.118   0.745
       -0.000   0.000  -0.000   0.000  -0.000  -0.000   0.000   0.000  -0.000
 
  chi0(G,G') at the    2 th omega   0.0000  16.7000 [eV]
       1       2       3       4       5       6       7       8       9
    1  -3.090   2.947   2.947  -2.547  -2.547   1.962   1.962  -1.299  -1.299
        0.000  -0.000   0.000  -0.000   0.000   0.000  -0.000   0.000   0.000
 
    2   2.947  -3.823  -1.944   4.331   1.055  -4.302  -0.449   3.696   0.185
        0.000   0.000  -0.000   0.000  -0.000  -0.000   0.000   0.000  -0.000
 
  Average fulfillment of the sum rule on Im[epsilon] for q-point    6 :     74.89  [%]
 
 
--------------------------------------------------------------------------------
  q-point number  7        q = ( 0.333333, 0.166667, 0.000000) [r.l.u.]
--------------------------------------------------------------------------------
  chi0(G,G') at the    1 th omega   0.0000   0.0000 [eV]
       1       2       3       4       5       6       7       8       9
    1 -19.433  18.658  18.659 -16.471 -16.471  13.251  13.251  -9.533  -9.533
        0.000  -0.000   0.000  -0.000   0.000   0.000  -0.000  -0.000   0.000
 
    2  18.658 -20.968 -15.165  21.545  11.198 -20.158  -7.445  16.972   4.417
        0.000   0.000  -0.000   0.000  -0.000  -0.000   0.000   0.000  -0.000
 
  chi0(G,G') at the    2 th omega   0.0000  16.7000 [eV]
       1       2       3       4       5       6       7       8       9
    1  -7.563   7.213   7.213  -6.231  -6.231   4.797   4.797  -3.170  -3.170
        0.000  -0.000   0.000  -0.000   0.000   0.000  -0.000  -0.000   0.000
 
    2   7.213  -8.244  -5.674   8.497   3.962  -7.856  -2.396   6.394   1.197
        0.000   0.000  -0.000   0.000  -0.000  -0.000   0.000   0.000  -0.000
 
  Average fulfillment of the sum rule on Im[epsilon] for q-point    7 :     71.99  [%]
 
 
--------------------------------------------------------------------------------
  q-point number  8        q = ( 0.500000, 0.166667, 0.000000) [r.l.u.]
--------------------------------------------------------------------------------
  chi0(G,G') at the    1 th omega   0.0000   0.0000 [eV]
       1       2       3       4       5       6       7       8       9
    1 -32.633  31.302  31.302 -27.547 -27.547  22.024  22.024 -15.662 -15.662
        0.000  -0.000   0.000  -0.000   0.000   0.000  -0.000  -0.000  -0.000
 
    2  31.302 -33.950 -26.431  33.775  20.283 -30.690 -13.918  25.167   8.265
        0.000   0.000  -0.000   0.000  -0.000  -0.000   0.000   0.000  -0.000
 
  chi0(G,G') at the    2 th omega   0.0000  16.7000 [eV]
       1       2       3       4       5       6       7       8       9
    1 -14.132  13.472  13.472 -11.619 -11.619   8.918   8.918  -5.852  -5.852
        0.000  -0.000   0.000  -0.000   0.000   0.000  -0.000  -0.000   0.000
 
    2  13.472 -14.740 -11.124  14.618   8.180 -13.065  -5.181  10.329   2.591
        0.000   0.000  -0.000   0.000  -0.000  -0.000   0.000   0.000  -0.000
 
  Average fulfillment of the sum rule on Im[epsilon] for q-point    8 :     71.04  [%]
 
 
--------------------------------------------------------------------------------
  q-point number  9        q = ( 0.000000, 0.333333, 0.000000) [r.l.u.]
--------------------------------------------------------------------------------
  chi0(G,G') at the    1 th omega   0.0000   0.0000 [eV]
       1       2       3       4       5       6       7       8       9
    1 -14.490  13.891  13.891 -12.202 -12.202   9.726   9.726  -6.886  -6.886
        0.000   0.000   0.000  -0.000   0.000   0.000  -0.000  -0.000   0.000
 
    2  13.891 -16.061 -10.865  16.846   7.623 -15.979  -4.744  13.544   2.616
       -0.000   0.000  -0.000   0.000  -0.000  -0.000   0.000   0.000  -0.000
 
  chi0(G,G') at the    2 th omega   0.0000  16.7000 [eV]
       1       2       3       4       5       6       7       8       9
    1  -5.727   5.459   5.459  -4.708  -4.708   3.613   3.613  -2.373  -2.373
        0.000  -0.000   0.000  -0.000   0.000   0.000  -0.000  -0.000   0.000
 
    2   5.459  -6.422  -4.138   6.771   2.759  -6.368  -1.580   5.247   0.760
        0.000   0.000  -0.000   0.000  -0.000  -0.000   0.000   0.000  -0.000
 
  Average fulfillment of the sum rule on Im[epsilon] for q-point    9 :     72.90  [%]
 
 
--------------------------------------------------------------------------------
  q-point number 10        q = ( 0.166667, 0.333333, 0.000000) [r.l.u.]
--------------------------------------------------------------------------------
  chi0(G,G') at the    1 th omega   0.0000   0.0000 [eV]
       1       2       3       4       5       6       7       8       9
    1 -18.218  17.469  17.469 -15.358 -15.358  12.260  12.260  -8.703  -8.703
        0.000  -0.000   0.000  -0.000   0.000   0.000  -0.000  -0.000   0.000
 
    2  17.469 -19.703 -14.097  20.262  10.286 -18.920  -6.712  15.843   3.871
        0.000   0.000  -0.000   0.000  -0.000  -0.000   0.000   0.000  -0.000
 
  chi0(G,G') at the    2 th omega   0.0000  16.7000 [eV]
       1       2       3       4       5       6       7       8       9
    1  -7.207   6.870   6.870  -5.925  -5.925   4.549   4.549  -2.989  -2.989
        0.000  -0.000   0.000  -0.000   0.000   0.000  -0.000  -0.000   0.000
 
    2   6.870  -7.885  -5.371   8.149   3.718  -7.543  -2.221   6.137   1.091
        0.000   0.000  -0.000   0.000  -0.000  -0.000   0.000   0.000  -0.000
 
  Average fulfillment of the sum rule on Im[epsilon] for q-point   10 :     72.18  [%]
 
 
--------------------------------------------------------------------------------
  q-point number 11        q = ( 0.333333, 0.333333, 0.000000) [r.l.u.]
--------------------------------------------------------------------------------
  chi0(G,G') at the    1 th omega   0.0000   0.0000 [eV]
       1       2       3       4       5       6       7       8       9
    1 -27.751  26.612  26.612 -23.400 -23.400  18.684  18.684 -13.263 -13.263
        0.000  -0.000   0.000  -0.000   0.000   0.000  -0.000  -0.000   0.000
 
    2  26.612 -29.047 -22.308  29.045  16.992 -26.485 -11.594  21.750   6.902
        0.000   0.000  -0.000   0.000  -0.000  -0.000   0.000   0.000  -0.000
 
  chi0(G,G') at the    2 th omega   0.0000  16.7000 [eV]
       1       2       3       4       5       6       7       8       9
    1 -11.370  10.839  10.839  -9.345  -9.345   7.169   7.169  -4.702  -4.702
        0.000  -0.000   0.000  -0.000   0.000   0.000  -0.000  -0.000  -0.000
 
    2  10.839 -12.000  -8.831  12.026   6.404 -10.845  -4.003   8.635   1.995
        0.000   0.000  -0.000   0.000  -0.000  -0.000   0.000   0.000  -0.000
 
  Average fulfillment of the sum rule on Im[epsilon] for q-point   11 :     70.99  [%]
 
 
--------------------------------------------------------------------------------
  q-point number 12        q = ( 0.500000, 0.333333, 0.000000) [r.l.u.]
--------------------------------------------------------------------------------
  chi0(G,G') at the    1 th omega   0.0000   0.0000 [eV]
       1       2       3       4       5       6       7       8       9
    1 -39.678  38.029  38.029 -33.380 -33.380  26.555  26.555 -18.715 -18.715
        0.000  -0.000   0.000  -0.000   0.000   0.000  -0.000   0.000  -0.000
 
    2  38.029 -40.782 -32.455  40.096  25.136 -35.986 -17.344  29.114  10.257
        0.000   0.000  -0.000   0.000  -0.000  -0.000   0.000   0.000  -0.000
 
  chi0(G,G') at the    2 th omega   0.0000  16.7000 [eV]
       1       2       3       4       5       6       7       8       9
    1 -17.514  16.690  16.690 -14.374 -14.374  11.000  11.000  -7.177  -7.177
        0.000  -0.000   0.000  -0.000   0.000   0.000  -0.000  -0.000   0.000
 
    2  16.690 -18.078 -13.916  17.752  10.323 -15.710  -6.569  12.297   3.252
        0.000   0.000  -0.000   0.000  -0.000  -0.000   0.000   0.000  -0.000
 
  Average fulfillment of the sum rule on Im[epsilon] for q-point   12 :     70.52  [%]
 
 
--------------------------------------------------------------------------------
  q-point number 13        q = ( 0.000000, 0.500000, 0.000000) [r.l.u.]
--------------------------------------------------------------------------------
  chi0(G,G') at the    1 th omega   0.0000   0.0000 [eV]
       1       2       3       4       5       6       7       8       9
    1 -27.918  26.751  26.751 -23.465 -23.464  18.648  18.648 -13.130 -13.130
        0.000   0.000   0.000  -0.000   0.000   0.000  -0.000  -0.000  -0.000
 
    2  26.751 -29.204 -22.378  29.163  16.960 -26.522 -11.455  21.689   6.683
       -0.000   0.000  -0.000   0.000  -0.000  -0.000   0.000   0.000  -0.000
 
  chi0(G,G') at the    2 th omega   0.0000  16.7000 [eV]
       1       2       3       4       5       6       7       8       9
    1 -12.041  11.473  11.473  -9.880  -9.880   7.560   7.560  -4.934  -4.934
        0.000   0.000   0.000  -0.000   0.000   0.000  -0.000  -0.000   0.000
 
    2  11.473 -12.657  -9.378  12.634   6.814 -11.344  -4.255   8.989   2.099
       -0.000   0.000   0.000   0.000  -0.000  -0.000   0.000   0.000  -0.000
 
  Average fulfillment of the sum rule on Im[epsilon] for q-point   13 :     71.64  [%]
 
 
--------------------------------------------------------------------------------
  q-point number 14        q = ( 0.166667, 0.500000, 0.000000) [r.l.u.]
--------------------------------------------------------------------------------
  chi0(G,G') at the    1 th omega   0.0000   0.0000 [eV]
       1       2       3       4       5       6       7       8       9
    1 -30.772  29.484  29.484 -25.855 -25.855  20.536  20.536 -14.442 -14.442
        0.000  -0.000   0.000  -0.000   0.000   0.000  -0.000  -0.000   0.000
 
    2  29.484 -31.996 -24.823  31.779  18.940 -28.758 -12.872  23.411   7.532
        0.000   0.000  -0.000   0.000  -0.000  -0.000   0.000   0.000  -0.000
 
  chi0(G,G') at the    2 th omega   0.0000  16.7000 [eV]
       1       2       3       4       5       6       7       8       9
    1 -13.354  12.724  12.724 -10.956 -10.956   8.381   8.381  -5.466  -5.466
        0.000  -0.000   0.000  -0.000   0.000   0.000  -0.000  -0.000   0.000
 
    2  12.724 -13.956 -10.467  13.857   7.655 -12.383  -4.808   9.771   2.372
        0.000   0.000  -0.000   0.000  -0.000  -0.000   0.000   0.000  -0.000
 
  Average fulfillment of the sum rule on Im[epsilon] for q-point   14 :     71.27  [%]
 
 
--------------------------------------------------------------------------------
  q-point number 15        q = ( 0.333333, 0.500000, 0.000000) [r.l.u.]
--------------------------------------------------------------------------------
  chi0(G,G') at the    1 th omega   0.0000   0.0000 [eV]
       1       2       3       4       5       6       7       8       9
    1 -38.424  36.808  36.808 -32.256 -32.256  25.583  25.583 -17.938 -17.938
        0.000  -0.000   0.000  -0.000   0.000   0.000  -0.000   0.000   0.000
 
    2  36.808 -39.501 -31.353  38.825  24.202 -34.793 -16.610  28.065   9.738
        0.000   0.000  -0.000   0.000  -0.000  -0.000   0.000   0.000  -0.000
 
  chi0(G,G') at the    2 th omega   0.0000  16.7000 [eV]
       1       2       3       4       5       6       7       8       9
    1 -17.066  16.259  16.259 -13.992 -13.992  10.692  10.692  -6.955  -6.955
        0.000  -0.000   0.000  -0.000   0.000   0.000  -0.000  -0.000   0.000
 
    2  16.259 -17.627 -13.538  17.314  10.020 -15.319  -6.354  11.978   3.125
        0.000   0.000  -0.000   0.000  -0.000  -0.000   0.000   0.000  -0.000
 
  Average fulfillment of the sum rule on Im[epsilon] for q-point   15 :     70.59  [%]
 
 
--------------------------------------------------------------------------------
  q-point number 16        q = ( 0.500000, 0.500000, 0.000000) [r.l.u.]
--------------------------------------------------------------------------------
  chi0(G,G') at the    1 th omega   0.0000   0.0000 [eV]
       1       2       3       4       5       6       7       8       9
    1 -48.569  46.507  46.507 -40.700 -40.700  32.191  32.191 -22.447 -22.447
        0.000  -0.000   0.000  -0.000   0.000   0.000  -0.000  -0.000   0.000
 
    2  46.507 -49.486 -39.936  48.221  31.033 -42.843 -21.359  34.258  12.416
        0.000   0.000  -0.000   0.000  -0.000  -0.000   0.000   0.000  -0.000
 
  chi0(G,G') at the    2 th omega   0.0000  16.7000 [eV]
       1       2       3       4       5       6       7       8       9
    1 -22.585  21.510  21.510 -18.492 -18.492  14.100  14.100  -9.130  -9.130
        0.000  -0.000   0.000  -0.000   0.000   0.000  -0.000   0.000   0.000
 
    2  21.510 -23.087 -18.086  22.456  13.504 -19.678  -8.605  15.242   4.188
        0.000   0.000  -0.000   0.000  -0.000  -0.000   0.000   0.000  -0.000
 
  Average fulfillment of the sum rule on Im[epsilon] for q-point   16 :     70.31  [%]
 
================================================================================
== DATASET  4 ==================================================================
-   mpi_nproc: 96, omp_nthreads: -1 (-1 if OMP is not activated)
 

--- !DatasetInfo
iteration_state: {dtset: 4, }
dimensions: {natom: 24, nkpt: 16, mband: 990, nsppol: 1, nspinor: 1, nspden: 1, mpw: 93588, }
cutoff_energies: {ecut:  50.0, pawecutdg:  -1.0, }
electrons: {nelect:   1.20000000E+02, charge:   0.00000000E+00, occopt:   1.00000000E+00, tsmear:   1.00000000E-02, }
meta: {optdriver: 4, gwcalctyp: 0, }
...

 mkfilename : getwfk/=0, take file _WFK from output of DATASET   2.
 
 mkfilename : getscr/=0, take file _SCR from output of DATASET   3.
 
 SIGMA: Calculation of the GW corrections 
 
 Based on a program developped by R.W. Godby, V. Olevano, G. Onida, and L. Reining.
 Incorporated in ABINIT by V. Olevano, G.-M. Rignanese, and M. Torrent.
.Using single precision arithmetic ; gwpc =  4
 
 Real(R)+Recip(G) space primitive vectors, cartesian coordinates (Bohr,Bohr^-1):
 R(1)=  8.3640758  0.0000000  0.0000000  G(1)=  0.1195589  0.0000000  0.0000000
 R(2)=  0.0000000  8.7492338  0.0000000  G(2)=  0.0000000  0.1142957  0.0000000
 R(3)=  0.0000000  0.0000000 75.5890453  G(3)=  0.0000000  0.0000000  0.0132294
 Unit cell volume ucvol=  5.5315500E+03 bohr^3
 Angles (23,13,12)=  9.00000000E+01  9.00000000E+01  9.00000000E+01 degrees
--------------------------------------------------------------------------------
 
 ==== K-mesh for the wavefunctions ====
 Number of points in the irreducible wedge :    16
 Reduced coordinates and weights : 
 
     1)     0.00000000E+00  0.00000000E+00  0.00000000E+00       0.02778
     2)     1.66666667E-01  0.00000000E+00  0.00000000E+00       0.05556
     3)     3.33333333E-01  0.00000000E+00  0.00000000E+00       0.05556
     4)     5.00000000E-01  0.00000000E+00  0.00000000E+00       0.02778
     5)     0.00000000E+00  1.66666667E-01  0.00000000E+00       0.05556
     6)     1.66666667E-01  1.66666667E-01  0.00000000E+00       0.11111
     7)     3.33333333E-01  1.66666667E-01  0.00000000E+00       0.11111
     8)     5.00000000E-01  1.66666667E-01  0.00000000E+00       0.05556
     9)     0.00000000E+00  3.33333333E-01  0.00000000E+00       0.05556
    10)     1.66666667E-01  3.33333333E-01  0.00000000E+00       0.11111
    11)     3.33333333E-01  3.33333333E-01  0.00000000E+00       0.11111
    12)     5.00000000E-01  3.33333333E-01  0.00000000E+00       0.05556
    13)     0.00000000E+00  5.00000000E-01  0.00000000E+00       0.02778
    14)     1.66666667E-01  5.00000000E-01  0.00000000E+00       0.05556
    15)     3.33333333E-01  5.00000000E-01  0.00000000E+00       0.05556
    16)     5.00000000E-01  5.00000000E-01  0.00000000E+00       0.02778
 
 Together with  8 symmetry operations and time-reversal symmetry 
 yields    36 points in the full Brillouin Zone.
 
 
 ==== Q-mesh for screening function ====
 Number of points in the irreducible wedge :    16
 Reduced coordinates and weights : 
 
     1)     0.00000000E+00  0.00000000E+00  0.00000000E+00       0.02778
     2)     1.66666667E-01  0.00000000E+00  0.00000000E+00       0.05556
     3)     3.33333333E-01  0.00000000E+00  0.00000000E+00       0.05556
     4)     5.00000000E-01  0.00000000E+00  0.00000000E+00       0.02778
     5)     0.00000000E+00  1.66666667E-01  0.00000000E+00       0.05556
     6)     1.66666667E-01  1.66666667E-01  0.00000000E+00       0.11111
     7)     3.33333333E-01  1.66666667E-01  0.00000000E+00       0.11111
     8)     5.00000000E-01  1.66666667E-01  0.00000000E+00       0.05556
     9)     0.00000000E+00  3.33333333E-01  0.00000000E+00       0.05556
    10)     1.66666667E-01  3.33333333E-01  0.00000000E+00       0.11111
    11)     3.33333333E-01  3.33333333E-01  0.00000000E+00       0.11111
    12)     5.00000000E-01  3.33333333E-01  0.00000000E+00       0.05556
    13)     0.00000000E+00  5.00000000E-01  0.00000000E+00       0.02778
    14)     1.66666667E-01  5.00000000E-01  0.00000000E+00       0.05556
    15)     3.33333333E-01  5.00000000E-01  0.00000000E+00       0.05556
    16)     5.00000000E-01  5.00000000E-01  0.00000000E+00       0.02778
 
 Together with  8 symmetry operations and time-reversal symmetry 
 yields    36 points in the full Brillouin Zone.
 
 
 setmesh: FFT mesh size selected  =    48x   48x  432
          total number of points  =       995328
 
 Number of electrons calculated from density =  120.0000; Expected =  120.0000
 average of density, n =  0.021694
 r_s =    2.2243
 omega_plasma =   14.2077 [eV]
 
 
 === KS Band Gaps ===
  >>>> For spin  1
   Minimum direct gap =   4.8379 [eV], located at k-point      :   0.0000  0.0000  0.0000
   Fundamental gap    =   4.8379 [eV], Top of valence bands at :   0.0000  0.0000  0.0000
                                       Bottom of conduction at :   0.0000  0.0000  0.0000
 SIGMA fundamental parameters:
 PLASMON POLE MODEL  1
 number of plane-waves for SigmaX                33059
 number of plane-waves for SigmaC and W           2977
 number of plane-waves for wavefunctions         93337
 number of bands                                   990
 number of independent spin polarizations            1
 number of spinorial components                      1
 number of k-points in IBZ                          16
 number of q-points in IBZ                          16
 number of symmetry operations                       8
 number of k-points in BZ                           36
 number of q-points in BZ                           36
 number of frequencies for dSigma/dE                 9
 frequency step for dSigma/dE [eV]                0.25
 number of omega for Sigma on real axis              0
 max omega for Sigma on real axis  [eV]           0.00
 zcut for avoiding poles [eV]                     0.10
 
 EPSILON^-1 parameters (SCR file):
 dimension of the eps^-1 matrix on file           2977
 dimension of the eps^-1 matrix used              2977
 number of plane-waves for wavefunctions         93337
 number of bands                                   660
 number of q-points in IBZ                          16
 number of frequencies                               2
 number of real frequencies                          1
 number of imag frequencies                          1
 
 matrix elements of self-energy operator (all in [eV])
 
 Perturbative Calculation

--- !SelfEnergy_ee
iteration_state: {dtset: 4, }
kpoint     : [   0.000,    0.000,    0.000, ]
spin       : 1
KS_gap     :    4.838
QP_gap     :    8.557
Delta_QP_KS:    3.719
data: !SigmaeeData |
     Band     E0 <VxcDFT>   SigX SigC(E0)      Z dSigC/dE  Sig(E)    E-E0       E
       58  -6.953 -19.597 -24.507   2.901   0.829  -0.206 -21.263  -1.667  -8.620
       59  -6.279 -17.381 -21.177   1.891   0.837  -0.195 -18.976  -1.595  -7.874
       60  -6.188 -16.678 -19.915   1.433   0.840  -0.191 -18.193  -1.514  -7.702
       61  -1.350 -15.095  -9.238  -3.276   0.854  -0.171 -12.890   2.205   0.855
...

 
== END DATASET(S) ==============================================================
================================================================================
  
 -outvars: echo values of variables after computation  --------
            acell      8.3640758087E+00  8.7492337591E+00  7.5589045315E+01 Bohr
              amu      1.20110000E+01  1.89984032E+01
             bdgw4         58      61
          chkprim           0
           diemac      1.20000000E+01
             ecut      5.00000000E+01 Hartree
          ecuteps3     5.00000000E+00 Hartree
          ecuteps4     0.00000000E+00 Hartree
         ecutsigx3     0.00000000E+00 Hartree
         ecutsigx4     2.50000000E+01 Hartree
          ecutwfn      5.00000000E+01 Hartree
           etotal3     0.0000000000E+00
           etotal4     0.0000000000E+00
            fcart3     0.0000000000E+00  0.0000000000E+00  0.0000000000E+00
                       0.0000000000E+00  0.0000000000E+00  0.0000000000E+00
                       0.0000000000E+00  0.0000000000E+00  0.0000000000E+00
                       0.0000000000E+00  0.0000000000E+00  0.0000000000E+00
                       0.0000000000E+00  0.0000000000E+00  0.0000000000E+00
                       0.0000000000E+00  0.0000000000E+00  0.0000000000E+00
                       0.0000000000E+00  0.0000000000E+00  0.0000000000E+00
                       0.0000000000E+00  0.0000000000E+00  0.0000000000E+00
                       0.0000000000E+00  0.0000000000E+00  0.0000000000E+00
                       0.0000000000E+00  0.0000000000E+00  0.0000000000E+00
                       0.0000000000E+00  0.0000000000E+00  0.0000000000E+00
                       0.0000000000E+00  0.0000000000E+00  0.0000000000E+00
                       0.0000000000E+00  0.0000000000E+00  0.0000000000E+00
                       0.0000000000E+00  0.0000000000E+00  0.0000000000E+00
                       0.0000000000E+00  0.0000000000E+00  0.0000000000E+00
                       0.0000000000E+00  0.0000000000E+00  0.0000000000E+00
                       0.0000000000E+00  0.0000000000E+00  0.0000000000E+00
                       0.0000000000E+00  0.0000000000E+00  0.0000000000E+00
                       0.0000000000E+00  0.0000000000E+00  0.0000000000E+00
                       0.0000000000E+00  0.0000000000E+00  0.0000000000E+00
                       0.0000000000E+00  0.0000000000E+00  0.0000000000E+00
                       0.0000000000E+00  0.0000000000E+00  0.0000000000E+00
                       0.0000000000E+00  0.0000000000E+00  0.0000000000E+00
                       0.0000000000E+00  0.0000000000E+00  0.0000000000E+00
            fcart4     0.0000000000E+00  0.0000000000E+00  0.0000000000E+00
                       0.0000000000E+00  0.0000000000E+00  0.0000000000E+00
                       0.0000000000E+00  0.0000000000E+00  0.0000000000E+00
                       0.0000000000E+00  0.0000000000E+00  0.0000000000E+00
                       0.0000000000E+00  0.0000000000E+00  0.0000000000E+00
                       0.0000000000E+00  0.0000000000E+00  0.0000000000E+00
                       0.0000000000E+00  0.0000000000E+00  0.0000000000E+00
                       0.0000000000E+00  0.0000000000E+00  0.0000000000E+00
                       0.0000000000E+00  0.0000000000E+00  0.0000000000E+00
                       0.0000000000E+00  0.0000000000E+00  0.0000000000E+00
                       0.0000000000E+00  0.0000000000E+00  0.0000000000E+00
                       0.0000000000E+00  0.0000000000E+00  0.0000000000E+00
                       0.0000000000E+00  0.0000000000E+00  0.0000000000E+00
                       0.0000000000E+00  0.0000000000E+00  0.0000000000E+00
                       0.0000000000E+00  0.0000000000E+00  0.0000000000E+00
                       0.0000000000E+00  0.0000000000E+00  0.0000000000E+00
                       0.0000000000E+00  0.0000000000E+00  0.0000000000E+00
                       0.0000000000E+00  0.0000000000E+00  0.0000000000E+00
                       0.0000000000E+00  0.0000000000E+00  0.0000000000E+00
                       0.0000000000E+00  0.0000000000E+00  0.0000000000E+00
                       0.0000000000E+00  0.0000000000E+00  0.0000000000E+00
                       0.0000000000E+00  0.0000000000E+00  0.0000000000E+00
                       0.0000000000E+00  0.0000000000E+00  0.0000000000E+00
                       0.0000000000E+00  0.0000000000E+00  0.0000000000E+00
-          fftalg         512
           getscr3          0
           getscr4          3
           getwfk           2
      gw_icutcoul           2
           istwfk        1    0    0    1    0    0    0    0    0    0
                         0    0    1    0    0    1
              ixc     -208012
           jdtset        3    4
              kpt      0.00000000E+00  0.00000000E+00  0.00000000E+00
                       1.66666667E-01  0.00000000E+00  0.00000000E+00
                       3.33333333E-01  0.00000000E+00  0.00000000E+00
                       5.00000000E-01  0.00000000E+00  0.00000000E+00
                       0.00000000E+00  1.66666667E-01  0.00000000E+00
                       1.66666667E-01  1.66666667E-01  0.00000000E+00
                       3.33333333E-01  1.66666667E-01  0.00000000E+00
                       5.00000000E-01  1.66666667E-01  0.00000000E+00
                       0.00000000E+00  3.33333333E-01  0.00000000E+00
                       1.66666667E-01  3.33333333E-01  0.00000000E+00
                       3.33333333E-01  3.33333333E-01  0.00000000E+00
                       5.00000000E-01  3.33333333E-01  0.00000000E+00
                       0.00000000E+00  5.00000000E-01  0.00000000E+00
                       1.66666667E-01  5.00000000E-01  0.00000000E+00
                       3.33333333E-01  5.00000000E-01  0.00000000E+00
                       5.00000000E-01  5.00000000E-01  0.00000000E+00
            kptgw4     0.00000000E+00  0.00000000E+00  0.00000000E+00
         kptrlatt        6    0    0      0    6    0      0    0    1
          kptrlen      5.01844549E+01
P           mkmem           1
            natom          24
            nband3        660
            nband4        990
           ndtset           2
            ngfft          54      60     486
             nkpt          16
           nkptgw3          0
           nkptgw4          1
           npweps3       2977
           npweps4          0
          npwsigx3          0
          npwsigx4      33059
           npwwfn       93337
            nstep         100
             nsym           8
           ntypat           2
              occ3     2.000000  2.000000  2.000000  2.000000  2.000000  2.000000
                       2.000000  2.000000  2.000000  2.000000  2.000000  2.000000
                       2.000000  2.000000  2.000000  2.000000  2.000000  2.000000
                       2.000000  2.000000  2.000000  2.000000  2.000000  2.000000
                       2.000000  2.000000  2.000000  2.000000  2.000000  2.000000
                       2.000000  2.000000  2.000000  2.000000  2.000000  2.000000
                       2.000000  2.000000  2.000000  2.000000  2.000000  2.000000
                       2.000000  2.000000  2.000000  2.000000  2.000000  2.000000
                       2.000000  2.000000  2.000000  2.000000  2.000000  2.000000
                       2.000000  2.000000  2.000000  2.000000  2.000000  2.000000
                       0.000000  0.000000  0.000000  0.000000  0.000000  0.000000
                       0.000000  0.000000  0.000000  0.000000  0.000000  0.000000
                       0.000000  0.000000  0.000000  0.000000  0.000000  0.000000
                       0.000000  0.000000  0.000000  0.000000  0.000000  0.000000
                       0.000000  0.000000  0.000000  0.000000  0.000000  0.000000
                       0.000000  0.000000  0.000000  0.000000  0.000000  0.000000
                       0.000000  0.000000  0.000000  0.000000  0.000000  0.000000
                       0.000000  0.000000  0.000000  0.000000  0.000000  0.000000
                       0.000000  0.000000  0.000000  0.000000  0.000000  0.000000
                       0.000000  0.000000  0.000000  0.000000  0.000000  0.000000
                       0.000000  0.000000  0.000000  0.000000  0.000000  0.000000
                       0.000000  0.000000  0.000000  0.000000  0.000000  0.000000
                       0.000000  0.000000  0.000000  0.000000  0.000000  0.000000
                       0.000000  0.000000  0.000000  0.000000  0.000000  0.000000
                       0.000000  0.000000  0.000000  0.000000  0.000000  0.000000
                       0.000000  0.000000  0.000000  0.000000  0.000000  0.000000
                       0.000000  0.000000  0.000000  0.000000  0.000000  0.000000
                       0.000000  0.000000  0.000000  0.000000  0.000000  0.000000
                       0.000000  0.000000  0.000000  0.000000  0.000000  0.000000
[...]
                       0.000000  0.000000  0.000000  0.000000  0.000000  0.000000
                       0.000000  0.000000  0.000000  0.000000  0.000000  0.000000
                       0.000000  0.000000  0.000000  0.000000  0.000000  0.000000
                       0.000000  0.000000  0.000000  0.000000  0.000000  0.000000
                       0.000000  0.000000  0.000000  0.000000  0.000000  0.000000
                       0.000000  0.000000  0.000000  0.000000  0.000000  0.000000
                       0.000000  0.000000  0.000000  0.000000  0.000000  0.000000
                       0.000000  0.000000  0.000000  0.000000  0.000000  0.000000
                       0.000000  0.000000  0.000000  0.000000  0.000000  0.000000
                       0.000000  0.000000  0.000000  0.000000  0.000000  0.000000
                       0.000000  0.000000  0.000000  0.000000  0.000000  0.000000
                       0.000000  0.000000  0.000000  0.000000  0.000000  0.000000
                       0.000000  0.000000  0.000000  0.000000  0.000000  0.000000
                       0.000000  0.000000  0.000000  0.000000  0.000000  0.000000
                       0.000000  0.000000  0.000000  0.000000  0.000000  0.000000
                       0.000000  0.000000  0.000000  0.000000  0.000000  0.000000
                       0.000000  0.000000  0.000000  0.000000  0.000000  0.000000
                       0.000000  0.000000  0.000000  0.000000  0.000000  0.000000
                       0.000000  0.000000  0.000000  0.000000  0.000000  0.000000
                       0.000000  0.000000  0.000000  0.000000  0.000000  0.000000
                       0.000000  0.000000  0.000000  0.000000  0.000000  0.000000
                       0.000000  0.000000  0.000000  0.000000  0.000000  0.000000
                       0.000000  0.000000  0.000000  0.000000  0.000000  0.000000
                       0.000000  0.000000  0.000000  0.000000  0.000000  0.000000
                       0.000000  0.000000  0.000000  0.000000  0.000000  0.000000
                       0.000000  0.000000  0.000000  0.000000  0.000000  0.000000
                       0.000000  0.000000  0.000000  0.000000  0.000000  0.000000
                       0.000000  0.000000  0.000000  0.000000  0.000000  0.000000
                       0.000000  0.000000  0.000000  0.000000  0.000000  0.000000
                       0.000000  0.000000  0.000000  0.000000  0.000000  0.000000
                       0.000000  0.000000  0.000000  0.000000  0.000000  0.000000
                       0.000000  0.000000  0.000000  0.000000  0.000000  0.000000
                       0.000000  0.000000  0.000000  0.000000  0.000000  0.000000
                       0.000000  0.000000  0.000000  0.000000  0.000000  0.000000
                       0.000000  0.000000  0.000000  0.000000  0.000000  0.000000
                       0.000000  0.000000  0.000000  0.000000  0.000000  0.000000
                       0.000000  0.000000  0.000000  0.000000  0.000000  0.000000
                       0.000000  0.000000  0.000000  0.000000  0.000000  0.000000
                       0.000000  0.000000  0.000000  0.000000  0.000000  0.000000
                       0.000000  0.000000  0.000000  0.000000  0.000000  0.000000
                       0.000000  0.000000  0.000000  0.000000  0.000000  0.000000
                       0.000000  0.000000  0.000000  0.000000  0.000000  0.000000
                       0.000000  0.000000  0.000000  0.000000  0.000000  0.000000
                       0.000000  0.000000  0.000000  0.000000  0.000000  0.000000
                       0.000000  0.000000  0.000000  0.000000  0.000000  0.000000
                       0.000000  0.000000  0.000000  0.000000  0.000000  0.000000
                       0.000000  0.000000  0.000000  0.000000  0.000000  0.000000
                       0.000000  0.000000  0.000000  0.000000  0.000000  0.000000
                       0.000000  0.000000  0.000000  0.000000  0.000000  0.000000
                       0.000000  0.000000  0.000000  0.000000  0.000000  0.000000
                       0.000000  0.000000  0.000000  0.000000  0.000000  0.000000
                       0.000000  0.000000  0.000000  0.000000  0.000000  0.000000
                       0.000000  0.000000  0.000000  0.000000  0.000000  0.000000
                       0.000000  0.000000  0.000000  0.000000  0.000000  0.000000
                       0.000000  0.000000  0.000000  0.000000  0.000000  0.000000
                       0.000000  0.000000  0.000000  0.000000  0.000000  0.000000
                       0.000000  0.000000  0.000000  0.000000  0.000000  0.000000
                       0.000000  0.000000  0.000000  0.000000  0.000000  0.000000
                       0.000000  0.000000  0.000000  0.000000  0.000000  0.000000
                       0.000000  0.000000  0.000000  0.000000  0.000000  0.000000
                       0.000000  0.000000  0.000000  0.000000  0.000000  0.000000
                       0.000000  0.000000  0.000000  0.000000  0.000000  0.000000
                       0.000000  0.000000  0.000000  0.000000  0.000000  0.000000
                       0.000000  0.000000  0.000000  0.000000  0.000000  0.000000
                       0.000000  0.000000  0.000000  0.000000  0.000000  0.000000
                       0.000000  0.000000  0.000000  0.000000  0.000000  0.000000
                       0.000000  0.000000  0.000000  0.000000  0.000000  0.000000
                       0.000000  0.000000  0.000000  0.000000  0.000000  0.000000
                       0.000000  0.000000  0.000000  0.000000  0.000000  0.000000
                       0.000000  0.000000  0.000000  0.000000  0.000000  0.000000
                       0.000000  0.000000  0.000000  0.000000  0.000000  0.000000
                       0.000000  0.000000  0.000000  0.000000  0.000000  0.000000
                       0.000000  0.000000  0.000000  0.000000  0.000000  0.000000
                       0.000000  0.000000  0.000000  0.000000  0.000000  0.000000
                       0.000000  0.000000  0.000000  0.000000  0.000000  0.000000
                       0.000000  0.000000  0.000000  0.000000  0.000000  0.000000
                       0.000000  0.000000  0.000000  0.000000  0.000000  0.000000
                       0.000000  0.000000  0.000000  0.000000  0.000000  0.000000
                       0.000000  0.000000  0.000000  0.000000  0.000000  0.000000
                       0.000000  0.000000  0.000000  0.000000  0.000000  0.000000
                       0.000000  0.000000  0.000000  0.000000  0.000000  0.000000
                       0.000000  0.000000  0.000000  0.000000  0.000000  0.000000
                       0.000000  0.000000  0.000000  0.000000  0.000000  0.000000
        optdriver3          3
        optdriver4          4
           ppmfrq3     6.13713734E-01 Hartree
           ppmfrq4     0.00000000E+00 Hartree
          spgroup          57
           strten3     0.0000000000E+00  0.0000000000E+00  0.0000000000E+00
                       0.0000000000E+00  0.0000000000E+00  0.0000000000E+00
           strten4     0.0000000000E+00  0.0000000000E+00  0.0000000000E+00
                       0.0000000000E+00  0.0000000000E+00  0.0000000000E+00
           symrel      1  0  0   0  1  0   0  0  1      -1  0  0   0 -1  0   0  0 -1
                      -1  0  0   0  1  0   0  0 -1       1  0  0   0 -1  0   0  0  1
                      -1  0  0   0 -1  0   0  0  1       1  0  0   0  1  0   0  0 -1
                       1  0  0   0 -1  0   0  0 -1      -1  0  0   0  1  0   0  0  1
            tnons      0.0000000  0.0000000  0.0000000    -0.0000000 -0.0000000  0.0000000
                       0.5000000  0.5000000  0.0000000     0.5000000  0.5000000  0.0000000
                      -0.0000000  0.5000000  0.0000000     0.0000000  0.5000000  0.0000000
                       0.5000000 -0.0000000  0.0000000     0.5000000  0.0000000  0.0000000
           toldfe      1.00000000E-08 Hartree
           tolsym      1.00000000E-04
            typat      1  1  1  1  1  1  1  1  1  1  1  1  1  1  1  1  2  2  2  2
                       2  2  2  2
          usekden           1
          vcutgeo      1.0000000  1.0000000  0.0000000
              wtk        0.02778    0.05556    0.05556    0.02778    0.05556    0.11111
                         0.11111    0.05556    0.05556    0.11111    0.11111    0.05556
                         0.02778    0.05556    0.05556    0.02778
           xangst      1.9332403955E+00  4.2297149319E+00  1.9368575677E+01
                       2.4928378933E+00  4.0018016603E-01  2.0631424323E+01
                       4.1462795400E+00  4.0018016603E-01  2.0631424323E+01
                       2.7979874887E-01  4.2297149319E+00  1.9368575677E+01
                       2.7979874887E-01  1.9147673829E+00  2.0631424323E+01
                       4.1462795400E+00  2.7151277150E+00  1.9368575677E+01
                       2.4928378933E+00  2.7151277150E+00  1.9368575677E+01
                       1.9332403955E+00  1.9147673829E+00  2.0631424323E+01
                       1.9110075072E+00  4.1897715104E+00  2.1793616530E+01
                       2.5150707817E+00  4.4012358755E-01  1.8206383470E+01
                       4.1240466516E+00  4.4012358755E-01  1.8206383470E+01
                       3.0203163722E-01  4.1897715104E+00  2.1793616530E+01
                       3.0203163722E-01  1.8748239614E+00  1.8206383470E+01
                       4.1240466516E+00  2.7550711365E+00  2.1793616530E+01
                       2.5150707817E+00  2.7550711365E+00  2.1793616530E+01
                       1.9110075072E+00  1.8748239614E+00  1.8206383470E+01
                       4.4327310661E+00  2.3388795412E+00  1.6971354245E+01
                      -6.6527773207E-03  2.2910155568E+00  2.3028645755E+01
                       2.2196919217E+00  2.2910155568E+00  2.3028645755E+01
                       2.2063863671E+00  2.3388795412E+00  1.6971354245E+01
                       2.2063863671E+00  2.3931992201E-02  2.3028645755E+01
                       2.2196919217E+00  4.6059631057E+00  1.6971354245E+01
                      -6.6527773207E-03  4.6059631057E+00  1.6971354245E+01
                       4.4327310661E+00  2.3931992201E-02  2.3028645755E+01
            xcart      3.6532948966E+00  7.9930028415E+00  3.6601303613E+01
                       4.7107809120E+00  7.5623091761E-01  3.8987741702E+01
                       7.8353328009E+00  7.5623091761E-01  3.8987741702E+01
                       5.2874300768E-01  7.9930028415E+00  3.6601303613E+01
                       5.2874300768E-01  3.6183859619E+00  3.8987741702E+01
                       7.8353328009E+00  5.1308477972E+00  3.6601303613E+01
                       4.7107809120E+00  5.1308477972E+00  3.6601303613E+01
                       3.6532948966E+00  3.6183859619E+00  3.8987741702E+01
                       3.6112808264E+00  7.9175207140E+00  4.1183966687E+01
                       4.7527949822E+00  8.3171304510E-01  3.4405078628E+01
                       7.7933187308E+00  8.3171304510E-01  3.4405078628E+01
                       5.7075707781E-01  7.9175207140E+00  4.1183966687E+01
                       5.7075707781E-01  3.5429038344E+00  3.4405078628E+01
                       7.7933187308E+00  5.2063299246E+00  4.1183966687E+01
                       4.7527949822E+00  5.2063299246E+00  4.1183966687E+01
                       3.6112808264E+00  3.5429038344E+00  3.4405078628E+01
                       8.3766477357E+00  4.4198417906E+00  3.2071211627E+01
                      -1.2571927159E-02  4.3293919685E+00  4.3517833688E+01
                       4.1946098314E+00  4.3293919685E+00  4.3517833688E+01
                       4.1694659772E+00  4.4198417906E+00  3.2071211627E+01
                       4.1694659772E+00  4.5224911075E-02  4.3517833688E+01
                       4.1946098314E+00  8.7040088480E+00  3.2071211627E+01
                      -1.2571927159E-02  8.7040088480E+00  3.2071211627E+01
                       8.3766477357E+00  4.5224911075E-02  4.3517833688E+01
             xred      4.3678404884E-01  9.1356604036E-01  4.8421439192E-01
                       5.6321595114E-01  8.6433959639E-02  5.1578560808E-01
                       9.3678404884E-01  8.6433959639E-02  5.1578560808E-01
                       6.3215951144E-02  9.1356604036E-01  4.8421439192E-01
                       6.3215951144E-02  4.1356604036E-01  5.1578560808E-01
                       9.3678404884E-01  5.8643395964E-01  4.8421439192E-01
                       5.6321595114E-01  5.8643395964E-01  4.8421439192E-01
                       4.3678404884E-01  4.1356604036E-01  5.1578560808E-01
                       4.3176089134E-01  9.0493875601E-01  5.4484041325E-01
                       5.6823910864E-01  9.5061243990E-02  4.5515958675E-01
                       9.3176089134E-01  9.5061243990E-02  4.5515958675E-01
                       6.8239108643E-02  9.0493875601E-01  5.4484041325E-01
                       6.8239108643E-02  4.0493875601E-01  4.5515958675E-01
                       9.3176089134E-01  5.9506124399E-01  5.4484041325E-01
                       5.6823910864E-01  5.9506124399E-01  5.4484041325E-01
                       4.3176089134E-01  4.0493875601E-01  4.5515958675E-01
                       1.0015030862E+00  5.0516901392E-01  4.2428385612E-01
                      -1.5030862282E-03  4.9483098608E-01  5.7571614388E-01
                       5.0150308622E-01  4.9483098608E-01  5.7571614388E-01
                       4.9849691377E-01  5.0516901392E-01  4.2428385612E-01
                       4.9849691377E-01  5.1690139182E-03  5.7571614388E-01
                       5.0150308622E-01  9.9483098608E-01  4.2428385612E-01
                      -1.5030862282E-03  9.9483098608E-01  4.2428385612E-01
                       1.0015030862E+00  5.1690139182E-03  5.7571614388E-01
            znucl        6.00000    9.00000
 
================================================================================


- Timing analysis has been suppressed with timopt=0



================================================================================

 Suggested references for the acknowledgment of ABINIT usage.

 The users of ABINIT have little formal obligations with respect to the ABINIT group
 (those specified in the GNU General Public License, http://www.gnu.org/copyleft/gpl.txt).
 However, it is common practice in the scientific literature,
 to acknowledge the efforts of people that have made the research possible.
 In this spirit, please find below suggested citations of work written by ABINIT developers,
 corresponding to implementations inside of ABINIT that you have used in the present run.
 Note also that it will be of great value to readers of publications presenting these results,
 to read papers enabling them to understand the theoretical formalism and details
 of the ABINIT implementation.
 For information on why they are suggested, see also https://docs.abinit.org/theory/acknowledgments.
-
- [1] Libxc: A library of exchange and correlation functionals for density functional theory.
- M.A.L. Marques, M.J.T. Oliveira, T. Burnus, Computer Physics Communications 183, 2227 (2012).
- Comment: to be cited when LibXC is used (negative value of ixc)
- Strong suggestion to cite this paper.
- DOI and bibtex: see https://docs.abinit.org/theory/bibliography/#marques2012
-
- [2] The Abinit project: Impact, environment and recent developments.
- Computer Phys. Comm. 248, 107042 (2020).
- X.Gonze, B. Amadon, G. Antonius, F.Arnardi, L.Baguet, J.-M.Beuken,
- J.Bieder, F.Bottin, J.Bouchet, E.Bousquet, N.Brouwer, F.Bruneval,
- G.Brunin, T.Cavignac, J.-B. Charraud, Wei Chen, M.Cote, S.Cottenier,
- J.Denier, G.Geneste, Ph.Ghosez, M.Giantomassi, Y.Gillet, O.Gingras,
- D.R.Hamann, G.Hautier, Xu He, N.Helbig, N.Holzwarth, Y.Jia, F.Jollet,
- W.Lafargue-Dit-Hauret, K.Lejaeghere, M.A.L.Marques, A.Martin, C.Martins,
- H.P.C. Miranda, F.Naccarato, K. Persson, G.Petretto, V.Planes, Y.Pouillon,
- S.Prokhorenko, F.Ricci, G.-M.Rignanese, A.H.Romero, M.M.Schmitt, M.Torrent,
- M.J.van Setten, B.Van Troeye, M.J.Verstraete, G.Zerah and J.W.Zwanzig
- Comment: the fifth generic paper describing the ABINIT project.
- Note that a version of this paper, that is not formatted for Computer Phys. Comm. 
- is available at https://www.abinit.org/sites/default/files/ABINIT20.pdf .
- The licence allows the authors to put it on the Web.
- DOI and bibtex: see https://docs.abinit.org/theory/bibliography/#gonze2020
-
- [3] ABINIT: Overview, and focus on selected capabilities
- J. Chem. Phys. 152, 124102 (2020).
- A. Romero, D.C. Allan, B. Amadon, G. Antonius, T. Applencourt, L.Baguet,
- J.Bieder, F.Bottin, J.Bouchet, E.Bousquet, F.Bruneval,
- G.Brunin, D.Caliste, M.Cote,
- J.Denier, C. Dreyer, Ph.Ghosez, M.Giantomassi, Y.Gillet, O.Gingras,
- D.R.Hamann, G.Hautier, F.Jollet, G. Jomard,
- A.Martin, 
- H.P.C. Miranda, F.Naccarato, G.Petretto, N.A. Pike, V.Planes,
- S.Prokhorenko, T. Rangel, F.Ricci, G.-M.Rignanese, M.Royo, M.Stengel, M.Torrent,
- M.J.van Setten, B.Van Troeye, M.J.Verstraete, J.Wiktor, J.W.Zwanziger, and X.Gonze.
- Comment: a global overview of ABINIT, with focus on selected capabilities .
- Note that a version of this paper, that is not formatted for J. Chem. Phys 
- is available at https://www.abinit.org/sites/default/files/ABINIT20_JPC.pdf .
- The licence allows the authors to put it on the Web.
- DOI and bibtex: see https://docs.abinit.org/theory/bibliography/#romero2020
-
- [4] Recent developments in the ABINIT software package.
- Computer Phys. Comm. 205, 106 (2016).
- X.Gonze, F.Jollet, F.Abreu Araujo, D.Adams, B.Amadon, T.Applencourt,
- C.Audouze, J.-M.Beuken, J.Bieder, A.Bokhanchuk, E.Bousquet, F.Bruneval
- D.Caliste, M.Cote, F.Dahm, F.Da Pieve, M.Delaveau, M.Di Gennaro,
- B.Dorado, C.Espejo, G.Geneste, L.Genovese, A.Gerossier, M.Giantomassi,
- Y.Gillet, D.R.Hamann, L.He, G.Jomard, J.Laflamme Janssen, S.Le Roux,
- A.Levitt, A.Lherbier, F.Liu, I.Lukacevic, A.Martin, C.Martins,
- M.J.T.Oliveira, S.Ponce, Y.Pouillon, T.Rangel, G.-M.Rignanese,
- A.H.Romero, B.Rousseau, O.Rubel, A.A.Shukri, M.Stankovski, M.Torrent,
- M.J.Van Setten, B.Van Troeye, M.J.Verstraete, D.Waroquier, J.Wiktor,
- B.Xu, A.Zhou, J.W.Zwanziger.
- Comment: the fourth generic paper describing the ABINIT project.
- Note that a version of this paper, that is not formatted for Computer Phys. Comm. 
- is available at https://www.abinit.org/sites/default/files/ABINIT16.pdf .
- The licence allows the authors to put it on the Web.
- DOI and bibtex: see https://docs.abinit.org/theory/bibliography/#gonze2016
-
- And optionally:
-
- [5] ABINIT: First-principles approach of materials and nanosystem properties.
- Computer Phys. Comm. 180, 2582-2615 (2009).
- X. Gonze, B. Amadon, P.-M. Anglade, J.-M. Beuken, F. Bottin, P. Boulanger, F. Bruneval,
- D. Caliste, R. Caracas, M. Cote, T. Deutsch, L. Genovese, Ph. Ghosez, M. Giantomassi
- S. Goedecker, D.R. Hamann, P. Hermet, F. Jollet, G. Jomard, S. Leroux, M. Mancini, S. Mazevet,
- M.J.T. Oliveira, G. Onida, Y. Pouillon, T. Rangel, G.-M. Rignanese, D. Sangalli, R. Shaltaf,
- M. Torrent, M.J. Verstraete, G. Zerah, J.W. Zwanziger
- Comment: the third generic paper describing the ABINIT project.
- Note that a version of this paper, that is not formatted for Computer Phys. Comm. 
- is available at https://www.abinit.org/sites/default/files/ABINIT_CPC_v10.pdf .
- The licence allows the authors to put it on the Web.
- DOI and bibtex: see https://docs.abinit.org/theory/bibliography/#gonze2009
-
- Proc.   0 individual time (sec): cpu=       9449.8  wall=       9532.3
 
================================================================================
 
 Calculation completed.
.Delivered   0 WARNINGs and   2 COMMENTs to log file.
+Overall time at end (sec) : cpu=     906983.3  wall=     915081.5
