  ABINIT 9.7.2
  
 DeprecationWarning: 

     The files file has been deprecated in Abinit9 and will be removed in Abinit10.
     Use the syntax `abinit t01.abi` where t01.abi is an input with pseudopotentials e.g.

            pseudos = "al.psp8, as.psp8"


  Give name for formatted input file: 
./2F-2110_gw.abi
  Give name for formatted output file:
2F-2110_gw.abo
  Give root name for generic input files:
2F-2110_gw_i
  Give root name for generic output files:
2F-2110_gw_o
  Give root name for generic temporary files:
2F-2110_gw
 
--- !COMMENT
src_file: m_dtfil.F90
src_line: 1476
message: |
    Output file: 2F-2110_gw.abo already exists.
...
 
 
--- !COMMENT
src_file: m_dtfil.F90
src_line: 1500
message: |
    Renaming old: 2F-2110_gw.abo to: 2F-2110_gw.abo0006
...
 

.Version 9.7.2 of ABINIT 
.(MPI version, prepared for a x86_64_linux_intel2021.2 computer) 

.Copyright (C) 1998-2021 ABINIT group . 
 ABINIT comes with ABSOLUTELY NO WARRANTY.
 It is free software, and you are welcome to redistribute it
 under certain conditions (GNU General Public License,
 see ~abinit/COPYING or http://www.gnu.org/copyleft/gpl.txt).

 ABINIT is a project of the Universite Catholique de Louvain,
 Corning Inc. and other collaborators, see ~abinit/doc/developers/contributors.txt .
 Please read https://docs.abinit.org/theory/acknowledgments for suggested
 acknowledgments of the ABINIT effort.
 For more information, see https://www.abinit.org .

.Starting date : Tue  1 Mar 2022.
- ( at 03h44 )
  
 
 ++++++++++++++++++++++++++++++++++++++++++++++++++++++++++++++++++++++++++++++
 
 === Build Information === 
  Version       : 9.7.2
  Build target  : x86_64_linux_intel2021.2
  Build date    : 20211124
 
 === Compiler Suite === 
  C compiler       : intel2021.2
  C++ compiler     : gnu2021.2
  Fortran compiler : intel2021.2
  CFLAGS           : -O2 -g
  CXXFLAGS         : -O2 -g
  FCFLAGS          : -O2 -g   -I/home/ucl/modl/gmatteo/git_repos/abinit_rmms/_intel/fall ...
  FC_LDFLAGS       :   -static-intel -static-libgcc
 
 === Optimizations === 
  Debug level        : basic
  Optimization level : standard
  Architecture       : amd_epyc
 
 === Multicore === 
  Parallel build : yes
  Parallel I/O   : 
  openMP support : no
  GPU support    : 
 
 === Connectors / Fallbacks === 
  LINALG flavor  : mkl
  FFT flavor     : dfti
  HDF5           : yes
  NetCDF         : yes
  NetCDF Fortran : yes
  LibXC          : yes
  Wannier90      : no
 
 === Experimental features === 
  Exports             : 
  GW double-precision : 
 
 ++++++++++++++++++++++++++++++++++++++++++++++++++++++++++++++++++++++++++++++
 

 ++++++++++++++++++++++++++++++++++++++++++++++++++++++++++++++++++++++++++++++
 Default optimizations:
   --- None ---


 ++++++++++++++++++++++++++++++++++++++++++++++++++++++++++++++++++++++++++++++


 ++++++++++++++++++++++++++++++++++++++++++++++++++++++++++++++++++++++++++++++
 CPP options activated during the build:

                  CC_INTEL                   CXX_GNU                  FC_INTEL
 
                 HAVE_DFTI HAVE_FC_ALLOCATABLE_DT...             HAVE_FC_ASYNC
 
  HAVE_FC_COMMAND_ARGUMENT      HAVE_FC_COMMAND_LINE        HAVE_FC_CONTIGUOUS
 
           HAVE_FC_CPUTIME             HAVE_FC_ETIME              HAVE_FC_EXIT
 
             HAVE_FC_FLUSH             HAVE_FC_GAMMA            HAVE_FC_GETENV
 
            HAVE_FC_GETPID   HAVE_FC_IEEE_ARITHMETIC   HAVE_FC_IEEE_EXCEPTIONS
 
             HAVE_FC_IOMSG     HAVE_FC_ISO_C_BINDING  HAVE_FC_ISO_FORTRAN_2008
 
        HAVE_FC_LONG_LINES        HAVE_FC_MOVE_ALLOC  HAVE_FC_ON_THE_FLY_SHAPE
 
           HAVE_FC_PRIVATE         HAVE_FC_PROTECTED           HAVE_FC_SHIFTLR
 
         HAVE_FC_STREAM_IO            HAVE_FC_SYSTEM                 HAVE_HDF5
 
             HAVE_HDF5_MPI        HAVE_LIBPAW_ABINIT      HAVE_LIBTETRA_ABINIT
 
                HAVE_LIBXC         HAVE_LINALG_AXPBY        HAVE_LINALG_GEMM3M
 
         HAVE_LINALG_GEMMT  HAVE_LINALG_MKL_IMATCOPY   HAVE_LINALG_MKL_OMATADD
 
  HAVE_LINALG_MKL_OMATCOPY   HAVE_LINALG_MKL_THREADS                  HAVE_MPI
 
                 HAVE_MPI2       HAVE_MPI_IALLGATHER       HAVE_MPI_IALLREDUCE
 
        HAVE_MPI_IALLTOALL       HAVE_MPI_IALLTOALLV           HAVE_MPI_IBCAST
 
         HAVE_MPI_IGATHERV        HAVE_MPI_INTEGER16               HAVE_MPI_IO
 
 HAVE_MPI_TYPE_CREATE_S...               HAVE_NETCDF       HAVE_NETCDF_FORTRAN
 
   HAVE_NETCDF_FORTRAN_MPI           HAVE_NETCDF_MPI             HAVE_OS_LINUX
 
         HAVE_TIMER_ABINIT                                                      
 ++++++++++++++++++++++++++++++++++++++++++++++++++++++++++++++++++++++++++++++

- input  file    -> ./2F-2110_gw.abi
- output file    -> 2F-2110_gw.abo
- root for input  files -> 2F-2110_gw_i
- root for output files -> 2F-2110_gw_o
 
 Netcdf library supports MPI-IO
-instrng: 119 lines of input have been read from file ./2F-2110_gw.abi
 

 Please give name of formatted atomic psp file (and finish with a newline character)
 For atom type 1, psp file is ../6c.4.hgh

 Please give name of formatted atomic psp file (and finish with a newline character)
 For atom type 2, psp file is ../9f.7.hgh
  read the values zionpsp=  4.0 , pspcod=   3 , lmax=   1
  read the values zionpsp=  7.0 , pspcod=   3 , lmax=   1
 
 inpspheads: deduce mpsang = 2, n1xccc = 0.

======================================================= 
 invars1m : enter jdtset= 3
 
 symlatt: the Bravais lattice is oP (primitive orthorhombic)
  xred   is defined in input file
 ingeo: takes atomic coordinates from input array xred
 
--- !COMMENT
src_file: m_ingeo.F90
src_line: 900
message: |
    The tolerance on symmetries =   1.000E-04 is bigger than 1.0e-8.
    In order to avoid spurious effects, the atomic coordinates have been
    symmetrized before storing them in the dataset internal variable.
    So, do not be surprised by the fact that your input variables (xcart, xred, ...)
    do not correspond exactly to the ones echoed by ABINIT, the latter being used to do the calculations.
    This is not a problem per se.
    Still, in order to avoid this symmetrization (e.g. for specific debugging/development), decrease tolsym to 1.0e-8 or lower,
    or (much preferred) use input primitive vectors that are accurate to better than 1.0e-8.
    This message will only be printed once, even if there are other datasets where tolsym is bigger than 1.0e-8.
...
 
 
 symlatt: the Bravais lattice is oP (primitive orthorhombic)
 
 symlatt: the Bravais lattice is oP (primitive orthorhombic)
  symspgr: 55 or 57
 symspgr: spgroup=  57  Pb c m   (=D2h^11)

======================================================= 
 invars1m : enter jdtset= 4
 
 symlatt: the Bravais lattice is oP (primitive orthorhombic)
  xred   is defined in input file
 ingeo: takes atomic coordinates from input array xred
 
 symlatt: the Bravais lattice is oP (primitive orthorhombic)
 
 symlatt: the Bravais lattice is oP (primitive orthorhombic)
  symspgr: 55 or 57
 symspgr: spgroup=  57  Pb c m   (=D2h^11)
 
--- !COMMENT
src_file: m_gsphere.F90
src_line: 1644
message: |
    One of the three variables ecutsigx, npwsigx, or nshsigx
    must be non-null. Returning.
...
 
 
--- !COMMENT
src_file: m_gsphere.F90
src_line: 1644
message: |
    One of the three variables ecuteps, npweps, or nsheps
    must be non-null. Returning.
...
 
 
--- !WARNING
src_file: m_mpinfo.F90
src_line: 2495
message: |
    nproc_spkpt= 96 >= nkpt= 16* nsppol= 1
    The number of processors is larger than nkpt*nsppol. This is a waste. (Ignore this warning if this is not a GS run)
...
 
 For input ecut=  5.000000E+01 best grid ngfft=      54      60     486
       max ecut=  5.099934E+01
 
 ==== FFT mesh ====
  FFT mesh divisions ........................    54   60  486
  Augmented FFT divisions ...................    55   61  486
  FFT algorithm .............................   512
  FFT cache size ............................    16
 getmpw: optimal value of mpw= 93588
 
--- !WARNING
src_file: m_mpinfo.F90
src_line: 2495
message: |
    nproc_spkpt= 96 >= nkpt= 16* nsppol= 1
    The number of processors is larger than nkpt*nsppol. This is a waste. (Ignore this warning if this is not a GS run)
...
 
 For input ecut=  5.000000E+01 best grid ngfft=      54      60     486
       max ecut=  5.099934E+01
 
 ==== FFT mesh ====
  FFT mesh divisions ........................    54   60  486
  Augmented FFT divisions ...................    55   61  486
  FFT algorithm .............................   512
  FFT cache size ............................    16
 getmpw: optimal value of mpw= 93588
 
 DATASET    3 : space group Pb c m (# 57); Bravais oP (primitive ortho.)
 
 getdim_nloc : deduce lmnmax  =   1, lnmax  =   1,
                      lmnmaxso=   4, lnmaxso=   2.
memory: analysis of memory needs
================================================================================
 Values of the parameters that define the memory need for DATASET  3.
     intxc =       0    ionmov =       0      iscf =       7    lmnmax =       1
     lnmax =       1     mgfft =     486  mpssoang =       2    mqgrid =   24061
     natom =      24  nloc_mem =       1    nspden =       1   nspinor =       1
    nsppol =       1      nsym =       8    n1xccc =       0    ntypat =       2
    occopt =       1   xclevel =       2
-    mband =         660        mffmem =           1         mkmem =           1
       mpw =       93588          nfft =     1574640          nkpt =          16
================================================================================
P This job should need less than                    1459.056 Mbytes of memory.
  Rough estimation (10% accuracy) of disk space for files :
_ WF disk file :  15080.100 Mbytes ; DEN or POT disk file :     12.016 Mbytes.
================================================================================
 
 Biggest array : cg(disk), with    942.5081 MBytes.
 
 DATASET    4 : space group Pb c m (# 57); Bravais oP (primitive ortho.)
 
 getdim_nloc : deduce lmnmax  =   1, lnmax  =   1,
                      lmnmaxso=   4, lnmaxso=   2.
memory: analysis of memory needs
================================================================================
 Values of the parameters that define the memory need for DATASET  4.
     intxc =       0    ionmov =       0      iscf =       7    lmnmax =       1
     lnmax =       1     mgfft =     486  mpssoang =       2    mqgrid =   24061
     natom =      24  nloc_mem =       1    nspden =       1   nspinor =       1
    nsppol =       1      nsym =       8    n1xccc =       0    ntypat =       2
    occopt =       1   xclevel =       2
-    mband =         990        mffmem =           1         mkmem =           1
       mpw =       93588          nfft =     1574640          nkpt =          16
================================================================================
P This job should need less than                    1946.455 Mbytes of memory.
  Rough estimation (10% accuracy) of disk space for files :
_ WF disk file :  22620.148 Mbytes ; DEN or POT disk file :     12.016 Mbytes.
================================================================================
 
 Biggest array : cg(disk), with   1413.7612 MBytes.
--------------------------------------------------------------------------------
------------- Echo of variables that govern the present computation ------------
--------------------------------------------------------------------------------
-
- outvars: echo of selected default values                                      
-   iomode0 =  0 , fftalg0 =512 , wfoptalg0 =  0
-
- outvars: echo of global parameters not present in the input file              
-  max_nthreads =    0
-
 -outvars: echo values of preprocessed input variables --------
 
 These variables are accessible in NetCDF format (2F-2110_gw_o_OUT.nc)

            acell      8.3640758087E+00  8.7492337591E+00  7.5589045315E+01 Bohr
              amu      1.20110000E+01  1.89984032E+01
             bdgw4         58      61
          chkprim           0
           diemac      1.20000000E+01
             ecut      5.00000000E+01 Hartree
          ecuteps3     5.00000000E+00 Hartree
          ecuteps4     0.00000000E+00 Hartree
         ecutsigx3     0.00000000E+00 Hartree
         ecutsigx4     2.50000000E+01 Hartree
          ecutwfn      5.00000000E+01 Hartree
-          fftalg         512
           getscr3          0
           getscr4          3
           getwfk           2
      gw_icutcoul           2
           istwfk        1    0    0    1    0    0    0    0    0    0
                         0    0    1    0    0    1
              ixc     -208012
           jdtset        3    4
              kpt      0.00000000E+00  0.00000000E+00  0.00000000E+00
                       1.66666667E-01  0.00000000E+00  0.00000000E+00
                       3.33333333E-01  0.00000000E+00  0.00000000E+00
                       5.00000000E-01  0.00000000E+00  0.00000000E+00
                       0.00000000E+00  1.66666667E-01  0.00000000E+00
                       1.66666667E-01  1.66666667E-01  0.00000000E+00
                       3.33333333E-01  1.66666667E-01  0.00000000E+00
                       5.00000000E-01  1.66666667E-01  0.00000000E+00
                       0.00000000E+00  3.33333333E-01  0.00000000E+00
                       1.66666667E-01  3.33333333E-01  0.00000000E+00
                       3.33333333E-01  3.33333333E-01  0.00000000E+00
                       5.00000000E-01  3.33333333E-01  0.00000000E+00
                       0.00000000E+00  5.00000000E-01  0.00000000E+00
                       1.66666667E-01  5.00000000E-01  0.00000000E+00
                       3.33333333E-01  5.00000000E-01  0.00000000E+00
                       5.00000000E-01  5.00000000E-01  0.00000000E+00
            kptgw4     0.00000000E+00  0.00000000E+00  0.00000000E+00
         kptrlatt        6    0    0      0    6    0      0    0    1
          kptrlen      5.01844549E+01
P           mkmem           1
            natom          24
            nband3        660
            nband4        990
           ndtset           2
            ngfft          54      60     486
             nkpt          16
           nkptgw3          0
           nkptgw4          1
           npweps3       2977
           npweps4          0
          npwsigx3          0
          npwsigx4      33059
           npwwfn       93337
            nstep         100
             nsym           8
           ntypat           2
              occ3     2.000000  2.000000  2.000000  2.000000  2.000000  2.000000
                       2.000000  2.000000  2.000000  2.000000  2.000000  2.000000
                       2.000000  2.000000  2.000000  2.000000  2.000000  2.000000
                       2.000000  2.000000  2.000000  2.000000  2.000000  2.000000
                       2.000000  2.000000  2.000000  2.000000  2.000000  2.000000
                       2.000000  2.000000  2.000000  2.000000  2.000000  2.000000
                       2.000000  2.000000  2.000000  2.000000  2.000000  2.000000
                       2.000000  2.000000  2.000000  2.000000  2.000000  2.000000
                       2.000000  2.000000  2.000000  2.000000  2.000000  2.000000
                       2.000000  2.000000  2.000000  2.000000  2.000000  2.000000
                       0.000000  0.000000  0.000000  0.000000  0.000000  0.000000
                       0.000000  0.000000  0.000000  0.000000  0.000000  0.000000
                       0.000000  0.000000  0.000000  0.000000  0.000000  0.000000
                       0.000000  0.000000  0.000000  0.000000  0.000000  0.000000
                       0.000000  0.000000  0.000000  0.000000  0.000000  0.000000
                       0.000000  0.000000  0.000000  0.000000  0.000000  0.000000
                       0.000000  0.000000  0.000000  0.000000  0.000000  0.000000
                       0.000000  0.000000  0.000000  0.000000  0.000000  0.000000
                       0.000000  0.000000  0.000000  0.000000  0.000000  0.000000
                       0.000000  0.000000  0.000000  0.000000  0.000000  0.000000
                       0.000000  0.000000  0.000000  0.000000  0.000000  0.000000
                       0.000000  0.000000  0.000000  0.000000  0.000000  0.000000
                       0.000000  0.000000  0.000000  0.000000  0.000000  0.000000
                       0.000000  0.000000  0.000000  0.000000  0.000000  0.000000
                       0.000000  0.000000  0.000000  0.000000  0.000000  0.000000
                       0.000000  0.000000  0.000000  0.000000  0.000000  0.000000
                       0.000000  0.000000  0.000000  0.000000  0.000000  0.000000
                       0.000000  0.000000  0.000000  0.000000  0.000000  0.000000
                       0.000000  0.000000  0.000000  0.000000  0.000000  0.000000
                       0.000000  0.000000  0.000000  0.000000  0.000000  0.000000
                       0.000000  0.000000  0.000000  0.000000  0.000000  0.000000
                       0.000000  0.000000  0.000000  0.000000  0.000000  0.000000
                       0.000000  0.000000  0.000000  0.000000  0.000000  0.000000
                       0.000000  0.000000  0.000000  0.000000  0.000000  0.000000
                       0.000000  0.000000  0.000000  0.000000  0.000000  0.000000
                       0.000000  0.000000  0.000000  0.000000  0.000000  0.000000
                       0.000000  0.000000  0.000000  0.000000  0.000000  0.000000
                       0.000000  0.000000  0.000000  0.000000  0.000000  0.000000
                       0.000000  0.000000  0.000000  0.000000  0.000000  0.000000
                       0.000000  0.000000  0.000000  0.000000  0.000000  0.000000
                       0.000000  0.000000  0.000000  0.000000  0.000000  0.000000
                       0.000000  0.000000  0.000000  0.000000  0.000000  0.000000
                       0.000000  0.000000  0.000000  0.000000  0.000000  0.000000
                       0.000000  0.000000  0.000000  0.000000  0.000000  0.000000
                       0.000000  0.000000  0.000000  0.000000  0.000000  0.000000
                       0.000000  0.000000  0.000000  0.000000  0.000000  0.000000
                       0.000000  0.000000  0.000000  0.000000  0.000000  0.000000
                       0.000000  0.000000  0.000000  0.000000  0.000000  0.000000
                       0.000000  0.000000  0.000000  0.000000  0.000000  0.000000
                       0.000000  0.000000  0.000000  0.000000  0.000000  0.000000
                       0.000000  0.000000  0.000000  0.000000  0.000000  0.000000
                       0.000000  0.000000  0.000000  0.000000  0.000000  0.000000
                       0.000000  0.000000  0.000000  0.000000  0.000000  0.000000
                       0.000000  0.000000  0.000000  0.000000  0.000000  0.000000
                       0.000000  0.000000  0.000000  0.000000  0.000000  0.000000
                       0.000000  0.000000  0.000000  0.000000  0.000000  0.000000
                       0.000000  0.000000  0.000000  0.000000  0.000000  0.000000
                       0.000000  0.000000  0.000000  0.000000  0.000000  0.000000
                       0.000000  0.000000  0.000000  0.000000  0.000000  0.000000
                       0.000000  0.000000  0.000000  0.000000  0.000000  0.000000
                       0.000000  0.000000  0.000000  0.000000  0.000000  0.000000
                       0.000000  0.000000  0.000000  0.000000  0.000000  0.000000
                       0.000000  0.000000  0.000000  0.000000  0.000000  0.000000
                       0.000000  0.000000  0.000000  0.000000  0.000000  0.000000
                       0.000000  0.000000  0.000000  0.000000  0.000000  0.000000
                       0.000000  0.000000  0.000000  0.000000  0.000000  0.000000
                       0.000000  0.000000  0.000000  0.000000  0.000000  0.000000
                       0.000000  0.000000  0.000000  0.000000  0.000000  0.000000
                       0.000000  0.000000  0.000000  0.000000  0.000000  0.000000
                       0.000000  0.000000  0.000000  0.000000  0.000000  0.000000
                       0.000000  0.000000  0.000000  0.000000  0.000000  0.000000
                       0.000000  0.000000  0.000000  0.000000  0.000000  0.000000
                       0.000000  0.000000  0.000000  0.000000  0.000000  0.000000
                       0.000000  0.000000  0.000000  0.000000  0.000000  0.000000
                       0.000000  0.000000  0.000000  0.000000  0.000000  0.000000
                       0.000000  0.000000  0.000000  0.000000  0.000000  0.000000
                       0.000000  0.000000  0.000000  0.000000  0.000000  0.000000
                       0.000000  0.000000  0.000000  0.000000  0.000000  0.000000
                       0.000000  0.000000  0.000000  0.000000  0.000000  0.000000
                       0.000000  0.000000  0.000000  0.000000  0.000000  0.000000
                       0.000000  0.000000  0.000000  0.000000  0.000000  0.000000
                       0.000000  0.000000  0.000000  0.000000  0.000000  0.000000
                       0.000000  0.000000  0.000000  0.000000  0.000000  0.000000
                       0.000000  0.000000  0.000000  0.000000  0.000000  0.000000
                       0.000000  0.000000  0.000000  0.000000  0.000000  0.000000
                       0.000000  0.000000  0.000000  0.000000  0.000000  0.000000
                       0.000000  0.000000  0.000000  0.000000  0.000000  0.000000
                       0.000000  0.000000  0.000000  0.000000  0.000000  0.000000
                       0.000000  0.000000  0.000000  0.000000  0.000000  0.000000
                       0.000000  0.000000  0.000000  0.000000  0.000000  0.000000
                       0.000000  0.000000  0.000000  0.000000  0.000000  0.000000
                       0.000000  0.000000  0.000000  0.000000  0.000000  0.000000
                       0.000000  0.000000  0.000000  0.000000  0.000000  0.000000
                       0.000000  0.000000  0.000000  0.000000  0.000000  0.000000
                       0.000000  0.000000  0.000000  0.000000  0.000000  0.000000
                       0.000000  0.000000  0.000000  0.000000  0.000000  0.000000
                       0.000000  0.000000  0.000000  0.000000  0.000000  0.000000
                       0.000000  0.000000  0.000000  0.000000  0.000000  0.000000
                       0.000000  0.000000  0.000000  0.000000  0.000000  0.000000
                       0.000000  0.000000  0.000000  0.000000  0.000000  0.000000
                       0.000000  0.000000  0.000000  0.000000  0.000000  0.000000
                       0.000000  0.000000  0.000000  0.000000  0.000000  0.000000
                       0.000000  0.000000  0.000000  0.000000  0.000000  0.000000
                       0.000000  0.000000  0.000000  0.000000  0.000000  0.000000
                       0.000000  0.000000  0.000000  0.000000  0.000000  0.000000
                       0.000000  0.000000  0.000000  0.000000  0.000000  0.000000
                       0.000000  0.000000  0.000000  0.000000  0.000000  0.000000
                       0.000000  0.000000  0.000000  0.000000  0.000000  0.000000
                       0.000000  0.000000  0.000000  0.000000  0.000000  0.000000
                       0.000000  0.000000  0.000000  0.000000  0.000000  0.000000
              occ4     2.000000  2.000000  2.000000  2.000000  2.000000  2.000000
                       2.000000  2.000000  2.000000  2.000000  2.000000  2.000000
                       2.000000  2.000000  2.000000  2.000000  2.000000  2.000000
                       2.000000  2.000000  2.000000  2.000000  2.000000  2.000000
                       2.000000  2.000000  2.000000  2.000000  2.000000  2.000000
                       2.000000  2.000000  2.000000  2.000000  2.000000  2.000000
                       2.000000  2.000000  2.000000  2.000000  2.000000  2.000000
                       2.000000  2.000000  2.000000  2.000000  2.000000  2.000000
                       2.000000  2.000000  2.000000  2.000000  2.000000  2.000000
                       2.000000  2.000000  2.000000  2.000000  2.000000  2.000000
                       0.000000  0.000000  0.000000  0.000000  0.000000  0.000000
                       0.000000  0.000000  0.000000  0.000000  0.000000  0.000000
                       0.000000  0.000000  0.000000  0.000000  0.000000  0.000000
                       0.000000  0.000000  0.000000  0.000000  0.000000  0.000000
                       0.000000  0.000000  0.000000  0.000000  0.000000  0.000000
                       0.000000  0.000000  0.000000  0.000000  0.000000  0.000000
                       0.000000  0.000000  0.000000  0.000000  0.000000  0.000000
                       0.000000  0.000000  0.000000  0.000000  0.000000  0.000000
                       0.000000  0.000000  0.000000  0.000000  0.000000  0.000000
                       0.000000  0.000000  0.000000  0.000000  0.000000  0.000000
                       0.000000  0.000000  0.000000  0.000000  0.000000  0.000000
                       0.000000  0.000000  0.000000  0.000000  0.000000  0.000000
                       0.000000  0.000000  0.000000  0.000000  0.000000  0.000000
                       0.000000  0.000000  0.000000  0.000000  0.000000  0.000000
                       0.000000  0.000000  0.000000  0.000000  0.000000  0.000000
                       0.000000  0.000000  0.000000  0.000000  0.000000  0.000000
                       0.000000  0.000000  0.000000  0.000000  0.000000  0.000000
                       0.000000  0.000000  0.000000  0.000000  0.000000  0.000000
                       0.000000  0.000000  0.000000  0.000000  0.000000  0.000000
                       0.000000  0.000000  0.000000  0.000000  0.000000  0.000000
                       0.000000  0.000000  0.000000  0.000000  0.000000  0.000000
                       0.000000  0.000000  0.000000  0.000000  0.000000  0.000000
                       0.000000  0.000000  0.000000  0.000000  0.000000  0.000000
                       0.000000  0.000000  0.000000  0.000000  0.000000  0.000000
                       0.000000  0.000000  0.000000  0.000000  0.000000  0.000000
                       0.000000  0.000000  0.000000  0.000000  0.000000  0.000000
                       0.000000  0.000000  0.000000  0.000000  0.000000  0.000000
                       0.000000  0.000000  0.000000  0.000000  0.000000  0.000000
                       0.000000  0.000000  0.000000  0.000000  0.000000  0.000000
                       0.000000  0.000000  0.000000  0.000000  0.000000  0.000000
                       0.000000  0.000000  0.000000  0.000000  0.000000  0.000000
                       0.000000  0.000000  0.000000  0.000000  0.000000  0.000000
                       0.000000  0.000000  0.000000  0.000000  0.000000  0.000000
                       0.000000  0.000000  0.000000  0.000000  0.000000  0.000000
                       0.000000  0.000000  0.000000  0.000000  0.000000  0.000000
                       0.000000  0.000000  0.000000  0.000000  0.000000  0.000000
                       0.000000  0.000000  0.000000  0.000000  0.000000  0.000000
                       0.000000  0.000000  0.000000  0.000000  0.000000  0.000000
                       0.000000  0.000000  0.000000  0.000000  0.000000  0.000000
                       0.000000  0.000000  0.000000  0.000000  0.000000  0.000000
                       0.000000  0.000000  0.000000  0.000000  0.000000  0.000000
                       0.000000  0.000000  0.000000  0.000000  0.000000  0.000000
                       0.000000  0.000000  0.000000  0.000000  0.000000  0.000000
                       0.000000  0.000000  0.000000  0.000000  0.000000  0.000000
                       0.000000  0.000000  0.000000  0.000000  0.000000  0.000000
                       0.000000  0.000000  0.000000  0.000000  0.000000  0.000000
                       0.000000  0.000000  0.000000  0.000000  0.000000  0.000000
                       0.000000  0.000000  0.000000  0.000000  0.000000  0.000000
                       0.000000  0.000000  0.000000  0.000000  0.000000  0.000000
                       0.000000  0.000000  0.000000  0.000000  0.000000  0.000000
                       0.000000  0.000000  0.000000  0.000000  0.000000  0.000000
                       0.000000  0.000000  0.000000  0.000000  0.000000  0.000000
                       0.000000  0.000000  0.000000  0.000000  0.000000  0.000000
                       0.000000  0.000000  0.000000  0.000000  0.000000  0.000000
                       0.000000  0.000000  0.000000  0.000000  0.000000  0.000000
                       0.000000  0.000000  0.000000  0.000000  0.000000  0.000000
                       0.000000  0.000000  0.000000  0.000000  0.000000  0.000000
                       0.000000  0.000000  0.000000  0.000000  0.000000  0.000000
                       0.000000  0.000000  0.000000  0.000000  0.000000  0.000000
                       0.000000  0.000000  0.000000  0.000000  0.000000  0.000000
                       0.000000  0.000000  0.000000  0.000000  0.000000  0.000000
                       0.000000  0.000000  0.000000  0.000000  0.000000  0.000000
                       0.000000  0.000000  0.000000  0.000000  0.000000  0.000000
                       0.000000  0.000000  0.000000  0.000000  0.000000  0.000000
                       0.000000  0.000000  0.000000  0.000000  0.000000  0.000000
                       0.000000  0.000000  0.000000  0.000000  0.000000  0.000000
                       0.000000  0.000000  0.000000  0.000000  0.000000  0.000000
                       0.000000  0.000000  0.000000  0.000000  0.000000  0.000000
                       0.000000  0.000000  0.000000  0.000000  0.000000  0.000000
                       0.000000  0.000000  0.000000  0.000000  0.000000  0.000000
                       0.000000  0.000000  0.000000  0.000000  0.000000  0.000000
                       0.000000  0.000000  0.000000  0.000000  0.000000  0.000000
                       0.000000  0.000000  0.000000  0.000000  0.000000  0.000000
                       0.000000  0.000000  0.000000  0.000000  0.000000  0.000000
                       0.000000  0.000000  0.000000  0.000000  0.000000  0.000000
                       0.000000  0.000000  0.000000  0.000000  0.000000  0.000000
                       0.000000  0.000000  0.000000  0.000000  0.000000  0.000000
                       0.000000  0.000000  0.000000  0.000000  0.000000  0.000000
                       0.000000  0.000000  0.000000  0.000000  0.000000  0.000000
                       0.000000  0.000000  0.000000  0.000000  0.000000  0.000000
                       0.000000  0.000000  0.000000  0.000000  0.000000  0.000000
                       0.000000  0.000000  0.000000  0.000000  0.000000  0.000000
                       0.000000  0.000000  0.000000  0.000000  0.000000  0.000000
                       0.000000  0.000000  0.000000  0.000000  0.000000  0.000000
                       0.000000  0.000000  0.000000  0.000000  0.000000  0.000000
                       0.000000  0.000000  0.000000  0.000000  0.000000  0.000000
                       0.000000  0.000000  0.000000  0.000000  0.000000  0.000000
                       0.000000  0.000000  0.000000  0.000000  0.000000  0.000000
                       0.000000  0.000000  0.000000  0.000000  0.000000  0.000000
                       0.000000  0.000000  0.000000  0.000000  0.000000  0.000000
                       0.000000  0.000000  0.000000  0.000000  0.000000  0.000000
                       0.000000  0.000000  0.000000  0.000000  0.000000  0.000000
                       0.000000  0.000000  0.000000  0.000000  0.000000  0.000000
                       0.000000  0.000000  0.000000  0.000000  0.000000  0.000000
                       0.000000  0.000000  0.000000  0.000000  0.000000  0.000000
                       0.000000  0.000000  0.000000  0.000000  0.000000  0.000000
                       0.000000  0.000000  0.000000  0.000000  0.000000  0.000000
                       0.000000  0.000000  0.000000  0.000000  0.000000  0.000000
                       0.000000  0.000000  0.000000  0.000000  0.000000  0.000000
                       0.000000  0.000000  0.000000  0.000000  0.000000  0.000000
                       0.000000  0.000000  0.000000  0.000000  0.000000  0.000000
                       0.000000  0.000000  0.000000  0.000000  0.000000  0.000000
                       0.000000  0.000000  0.000000  0.000000  0.000000  0.000000
                       0.000000  0.000000  0.000000  0.000000  0.000000  0.000000
                       0.000000  0.000000  0.000000  0.000000  0.000000  0.000000
                       0.000000  0.000000  0.000000  0.000000  0.000000  0.000000
                       0.000000  0.000000  0.000000  0.000000  0.000000  0.000000
                       0.000000  0.000000  0.000000  0.000000  0.000000  0.000000
                       0.000000  0.000000  0.000000  0.000000  0.000000  0.000000
                       0.000000  0.000000  0.000000  0.000000  0.000000  0.000000
                       0.000000  0.000000  0.000000  0.000000  0.000000  0.000000
                       0.000000  0.000000  0.000000  0.000000  0.000000  0.000000
                       0.000000  0.000000  0.000000  0.000000  0.000000  0.000000
                       0.000000  0.000000  0.000000  0.000000  0.000000  0.000000
                       0.000000  0.000000  0.000000  0.000000  0.000000  0.000000
                       0.000000  0.000000  0.000000  0.000000  0.000000  0.000000
                       0.000000  0.000000  0.000000  0.000000  0.000000  0.000000
                       0.000000  0.000000  0.000000  0.000000  0.000000  0.000000
                       0.000000  0.000000  0.000000  0.000000  0.000000  0.000000
                       0.000000  0.000000  0.000000  0.000000  0.000000  0.000000
                       0.000000  0.000000  0.000000  0.000000  0.000000  0.000000
                       0.000000  0.000000  0.000000  0.000000  0.000000  0.000000
                       0.000000  0.000000  0.000000  0.000000  0.000000  0.000000
                       0.000000  0.000000  0.000000  0.000000  0.000000  0.000000
                       0.000000  0.000000  0.000000  0.000000  0.000000  0.000000
                       0.000000  0.000000  0.000000  0.000000  0.000000  0.000000
                       0.000000  0.000000  0.000000  0.000000  0.000000  0.000000
                       0.000000  0.000000  0.000000  0.000000  0.000000  0.000000
                       0.000000  0.000000  0.000000  0.000000  0.000000  0.000000
                       0.000000  0.000000  0.000000  0.000000  0.000000  0.000000
                       0.000000  0.000000  0.000000  0.000000  0.000000  0.000000
                       0.000000  0.000000  0.000000  0.000000  0.000000  0.000000
                       0.000000  0.000000  0.000000  0.000000  0.000000  0.000000
                       0.000000  0.000000  0.000000  0.000000  0.000000  0.000000
                       0.000000  0.000000  0.000000  0.000000  0.000000  0.000000
                       0.000000  0.000000  0.000000  0.000000  0.000000  0.000000
                       0.000000  0.000000  0.000000  0.000000  0.000000  0.000000
                       0.000000  0.000000  0.000000  0.000000  0.000000  0.000000
                       0.000000  0.000000  0.000000  0.000000  0.000000  0.000000
                       0.000000  0.000000  0.000000  0.000000  0.000000  0.000000
                       0.000000  0.000000  0.000000  0.000000  0.000000  0.000000
                       0.000000  0.000000  0.000000  0.000000  0.000000  0.000000
                       0.000000  0.000000  0.000000  0.000000  0.000000  0.000000
                       0.000000  0.000000  0.000000  0.000000  0.000000  0.000000
                       0.000000  0.000000  0.000000  0.000000  0.000000  0.000000
                       0.000000  0.000000  0.000000  0.000000  0.000000  0.000000
                       0.000000  0.000000  0.000000  0.000000  0.000000  0.000000
                       0.000000  0.000000  0.000000  0.000000  0.000000  0.000000
                       0.000000  0.000000  0.000000  0.000000  0.000000  0.000000
                       0.000000  0.000000  0.000000  0.000000  0.000000  0.000000
                       0.000000  0.000000  0.000000  0.000000  0.000000  0.000000
                       0.000000  0.000000  0.000000  0.000000  0.000000  0.000000
                       0.000000  0.000000  0.000000  0.000000  0.000000  0.000000
                       0.000000  0.000000  0.000000  0.000000  0.000000  0.000000
                       0.000000  0.000000  0.000000  0.000000  0.000000  0.000000
        optdriver3          3
        optdriver4          4
           ppmfrq3     6.13713734E-01 Hartree
           ppmfrq4     0.00000000E+00 Hartree
          spgroup          57
           symrel      1  0  0   0  1  0   0  0  1      -1  0  0   0 -1  0   0  0 -1
                      -1  0  0   0  1  0   0  0 -1       1  0  0   0 -1  0   0  0  1
                      -1  0  0   0 -1  0   0  0  1       1  0  0   0  1  0   0  0 -1
                       1  0  0   0 -1  0   0  0 -1      -1  0  0   0  1  0   0  0  1
            tnons      0.0000000  0.0000000  0.0000000    -0.0000000 -0.0000000  0.0000000
                       0.5000000  0.5000000  0.0000000     0.5000000  0.5000000  0.0000000
                      -0.0000000  0.5000000  0.0000000     0.0000000  0.5000000  0.0000000
                       0.5000000 -0.0000000  0.0000000     0.5000000  0.0000000  0.0000000
           toldfe      1.00000000E-08 Hartree
           tolsym      1.00000000E-04
            typat      1  1  1  1  1  1  1  1  1  1  1  1  1  1  1  1  2  2  2  2
                       2  2  2  2
          usekden           1
          vcutgeo      1.0000000  1.0000000  0.0000000
              wtk        0.02778    0.05556    0.05556    0.02778    0.05556    0.11111
                         0.11111    0.05556    0.05556    0.11111    0.11111    0.05556
                         0.02778    0.05556    0.05556    0.02778
           xangst      1.9332403955E+00  4.2297149319E+00  1.9368575677E+01
                       2.4928378933E+00  4.0018016603E-01  2.0631424323E+01
                       4.1462795400E+00  4.0018016603E-01  2.0631424323E+01
                       2.7979874887E-01  4.2297149319E+00  1.9368575677E+01
                       2.7979874887E-01  1.9147673829E+00  2.0631424323E+01
                       4.1462795400E+00  2.7151277150E+00  1.9368575677E+01
                       2.4928378933E+00  2.7151277150E+00  1.9368575677E+01
                       1.9332403955E+00  1.9147673829E+00  2.0631424323E+01
                       1.9110075072E+00  4.1897715104E+00  2.1793616530E+01
                       2.5150707817E+00  4.4012358755E-01  1.8206383470E+01
                       4.1240466516E+00  4.4012358755E-01  1.8206383470E+01
                       3.0203163722E-01  4.1897715104E+00  2.1793616530E+01
                       3.0203163722E-01  1.8748239614E+00  1.8206383470E+01
                       4.1240466516E+00  2.7550711365E+00  2.1793616530E+01
                       2.5150707817E+00  2.7550711365E+00  2.1793616530E+01
                       1.9110075072E+00  1.8748239614E+00  1.8206383470E+01
                       4.4327310661E+00  2.3388795412E+00  1.6971354245E+01
                      -6.6527773207E-03  2.2910155568E+00  2.3028645755E+01
                       2.2196919217E+00  2.2910155568E+00  2.3028645755E+01
                       2.2063863671E+00  2.3388795412E+00  1.6971354245E+01
                       2.2063863671E+00  2.3931992201E-02  2.3028645755E+01
                       2.2196919217E+00  4.6059631057E+00  1.6971354245E+01
                      -6.6527773207E-03  4.6059631057E+00  1.6971354245E+01
                       4.4327310661E+00  2.3931992201E-02  2.3028645755E+01
            xcart      3.6532948966E+00  7.9930028415E+00  3.6601303613E+01
                       4.7107809120E+00  7.5623091761E-01  3.8987741702E+01
                       7.8353328009E+00  7.5623091761E-01  3.8987741702E+01
                       5.2874300768E-01  7.9930028415E+00  3.6601303613E+01
                       5.2874300768E-01  3.6183859619E+00  3.8987741702E+01
                       7.8353328009E+00  5.1308477972E+00  3.6601303613E+01
                       4.7107809120E+00  5.1308477972E+00  3.6601303613E+01
                       3.6532948966E+00  3.6183859619E+00  3.8987741702E+01
                       3.6112808264E+00  7.9175207140E+00  4.1183966687E+01
                       4.7527949822E+00  8.3171304510E-01  3.4405078628E+01
                       7.7933187308E+00  8.3171304510E-01  3.4405078628E+01
                       5.7075707781E-01  7.9175207140E+00  4.1183966687E+01
                       5.7075707781E-01  3.5429038344E+00  3.4405078628E+01
                       7.7933187308E+00  5.2063299246E+00  4.1183966687E+01
                       4.7527949822E+00  5.2063299246E+00  4.1183966687E+01
                       3.6112808264E+00  3.5429038344E+00  3.4405078628E+01
                       8.3766477357E+00  4.4198417906E+00  3.2071211627E+01
                      -1.2571927159E-02  4.3293919685E+00  4.3517833688E+01
                       4.1946098314E+00  4.3293919685E+00  4.3517833688E+01
                       4.1694659772E+00  4.4198417906E+00  3.2071211627E+01
                       4.1694659772E+00  4.5224911075E-02  4.3517833688E+01
                       4.1946098314E+00  8.7040088480E+00  3.2071211627E+01
                      -1.2571927159E-02  8.7040088480E+00  3.2071211627E+01
                       8.3766477357E+00  4.5224911075E-02  4.3517833688E+01
             xred      4.3678404884E-01  9.1356604036E-01  4.8421439192E-01
                       5.6321595114E-01  8.6433959639E-02  5.1578560808E-01
                       9.3678404884E-01  8.6433959639E-02  5.1578560808E-01
                       6.3215951144E-02  9.1356604036E-01  4.8421439192E-01
                       6.3215951144E-02  4.1356604036E-01  5.1578560808E-01
                       9.3678404884E-01  5.8643395964E-01  4.8421439192E-01
                       5.6321595114E-01  5.8643395964E-01  4.8421439192E-01
                       4.3678404884E-01  4.1356604036E-01  5.1578560808E-01
                       4.3176089134E-01  9.0493875601E-01  5.4484041325E-01
                       5.6823910864E-01  9.5061243990E-02  4.5515958675E-01
                       9.3176089134E-01  9.5061243990E-02  4.5515958675E-01
                       6.8239108643E-02  9.0493875601E-01  5.4484041325E-01
                       6.8239108643E-02  4.0493875601E-01  4.5515958675E-01
                       9.3176089134E-01  5.9506124399E-01  5.4484041325E-01
                       5.6823910864E-01  5.9506124399E-01  5.4484041325E-01
                       4.3176089134E-01  4.0493875601E-01  4.5515958675E-01
                       1.0015030862E+00  5.0516901392E-01  4.2428385612E-01
                      -1.5030862282E-03  4.9483098608E-01  5.7571614388E-01
                       5.0150308622E-01  4.9483098608E-01  5.7571614388E-01
                       4.9849691377E-01  5.0516901392E-01  4.2428385612E-01
                       4.9849691377E-01  5.1690139182E-03  5.7571614388E-01
                       5.0150308622E-01  9.9483098608E-01  4.2428385612E-01
                      -1.5030862282E-03  9.9483098608E-01  4.2428385612E-01
                       1.0015030862E+00  5.1690139182E-03  5.7571614388E-01
            znucl        6.00000    9.00000
 
================================================================================
 
 chkinp: Checking input parameters for consistency, jdtset=   3.
 
 chkinp: Checking input parameters for consistency, jdtset=   4.
 DATA TYPE INFORMATION: 
 REAL:      Data type name: REAL(DP) 
            Kind value:      8
            Precision:      15
            Smallest nonnegligible quantity relative to 1: 0.22204460E-015
            Smallest positive number:                      0.22250739E-307
            Largest representable number:                  0.17976931E+309
 INTEGER:   Data type name: INTEGER(default) 
            Kind value: 4
            Bit size:   32
            Largest representable number: 2147483647
 LOGICAL:   Data type name: LOGICAL 
            Kind value: 4
 CHARACTER: Data type name: CHARACTER             Kind value: 1

  ==== OpenMP parallelism is OFF ====
 
  ==== Using MPI-2 specifications ==== 
  MPI-IO support is ON
  xmpi_tag_ub ................       524287
  xmpi_bsize_ch ..............            1
  xmpi_bsize_int .............            4
  xmpi_bsize_sp ..............            4
  xmpi_bsize_dp ..............            8
  xmpi_bsize_spc .............            8
  xmpi_bsize_dpc .............           16
  xmpio_bsize_frm ............            4
  xmpi_address_kind ..........            8
  xmpi_offset_kind ...........            8
  MPI_WTICK ..................   3.448229684962851E-010
 
================================================================================
== DATASET  3 ==================================================================
-   mpi_nproc: 96, omp_nthreads: -1 (-1 if OMP is not activated)
 
 
--- !COMMENT
src_file: m_xgScalapack.F90
src_line: 236
message: |
    xgScalapack in auto mode
...
 
 mkfilename : getwfk/=0, take file _WFK from output of DATASET   2.
 
 
 getdim_nloc : deduce lmnmax  =   1, lnmax  =   1,
                      lmnmaxso=   4, lnmaxso=   2.
 Tran & Blaha 09
 F. Tran and P. Blaha, Phys. Rev. Lett. 102, 226401 (2009)
 Perdew & Wang
 J. P. Perdew and Y. Wang, Phys. Rev. B 45, 13244 (1992)
 
 SCREENING: Calculation of the susceptibility and dielectric matrices 
 
 Based on a program developped by R.W. Godby, V. Olevano, G. Onida, and L. Reining.
 Incorporated in ABINIT by V. Olevano, G.-M. Rignanese, and M. Torrent.
.Using single precision arithmetic ; gwpc =  4
 
 Unit cell volume ucvol=  5.5315500E+03 bohr^3
 Angles (23,13,12)=  9.00000000E+01  9.00000000E+01  9.00000000E+01 degrees
 
 getcut: wavevector=  0.0000  0.0000  0.0000  ngfft=  54  60 486
         ecut(hartree)=     50.000   => boxcut(ratio)=   2.01989
 
 ==== Dense FFT mesh used for densities and potentials ====
  FFT mesh divisions ........................    54   60  486
  Augmented FFT divisions ...................    55   61  486
  FFT algorithm .............................   512
  FFT cache size ............................    16
- pspini: atom type   1  psp file is ../6c.4.hgh
- pspatm: opening atomic psp file    ../6c.4.hgh
- Hartwigsen-Goedecker-Hutter psp for C,  from PRB58, 3641 (1998)
-  6.00000   4.00000     10605                znucl, zion, pspdat
    3    1    1    0      2001   0.00000      pspcod,pspxc,lmax,lloc,mmax,r2well
 
--- !WARNING
src_file: m_pspini.F90
src_line: 1039
message: |
    Pseudopotential file pspxc: 1, not equal to input ixc: -208012.
    These parameters must agree to get the same xc in ABINIT code as in psp construction.
    Action: check psp design or input file.
    Assume experienced user. Execution will continue.
...
 
 rloc=   0.3488300
 cc1 =  -8.5137710; cc2 =   1.2284320; cc3 =   0.0000000; cc4 =   0.0000000
 rrs =   0.3045530; h11s=   9.5228420; h22s=   0.0000000; h33s=   0.0000000
 rrp =   0.2326770; h11p=   0.0000000; h22p=   0.0000000; h33p=   0.0000000
                    k11p=   0.0041040; k22p=   0.0000000; k33p=   0.0000000
-  Local part computed in reciprocal space.
 
 pspatm : COMMENT -
  the projectors are not normalized,
  so that the KB energies are not consistent with 
  definition in PRB44, 8503 (1991). 
  However, this does not influence the results obtained hereafter.
  pspatm : epsatm=   -0.16969744
         --- l  ekb(1:nproj) -->
             0    0.953587
 pspatm: atomic psp has been read  and splines computed
 
- pspini: atom type   2  psp file is ../9f.7.hgh
- pspatm: opening atomic psp file    ../9f.7.hgh
- Hartwigsen-Goedecker-Hutter psp for F,  from PRB58, 3641 (1998)
-  9.00000   7.00000     10605                znucl, zion, pspdat
    3    1    1    0      2001   0.00000      pspcod,pspxc,lmax,lloc,mmax,r2well
 
--- !WARNING
src_file: m_pspini.F90
src_line: 1039
message: |
    Pseudopotential file pspxc: 1, not equal to input ixc: -208012.
    These parameters must agree to get the same xc in ABINIT code as in psp construction.
    Action: check psp design or input file.
    Assume experienced user. Execution will continue.
...
 
 rloc=   0.2185250
 cc1 = -21.3073610; cc2 =   3.0728690; cc3 =   0.0000000; cc4 =   0.0000000
 rrs =   0.1955670; h11s=  23.5849420; h22s=   0.0000000; h33s=   0.0000000
 rrp =   0.1742680; h11p=   0.0000000; h22p=   0.0000000; h33p=   0.0000000
                    k11p=   0.0151060; k22p=   0.0000000; k33p=   0.0000000
-  Local part computed in reciprocal space.
 
 pspatm : COMMENT -
  the projectors are not normalized,
  so that the KB energies are not consistent with 
  definition in PRB44, 8503 (1991). 
  However, this does not influence the results obtained hereafter.
  pspatm : epsatm=    0.11349172
         --- l  ekb(1:nproj) -->
             0    0.625355
 pspatm: atomic psp has been read  and splines computed
 
  -2.16867041E+02                                ecore*ucvol(ha*bohr**3)
 ==== Info on pseudopotentials ====
  Norm-conserving pseudopotentials
  Number of pseudopotentials ..    2
  Number of types of atoms   ..    2
  Calculation with spin-orbit coupling 
  Max number of channels (spin-orbit included)   3
  - Atom type    1 has spin-orbit characteristics (pspso=  0)
  - Atom type    2 has spin-orbit characteristics (pspso=  0)
  Nonlocal part applied using Legendre polynomials
  Max number of non-local projectors over l and type   1
  Highest angular momentum +1 .......   2
  Max number of (l,n)   components ..   2
  Max number of (l,m,n) components ..   2
 
 Info on the Q-grid used for form factors in spline form: 
   Number of q-points for radial functions ffspl ..  24061
   Number of q-points for vlspl ...................  24061
   vloc is computed in Reciprocal Space
   model core charge treated in real-space
 
  XC functional for type 1 is 1
  Pseudo valence available: no
  XC functional for type 2 is 1
  Pseudo valence available: no
 
 
 GW calculation type              =    0
 zcut to avoid poles in chi0 [eV] =   0.100000
 
 Reading eigenvalues from: 2F-2110_gw_o_DS2_WFK , with iomode: IO_MODE_MPI
 wfk_read_eigenvalues completed. cpu:  0.01 [s] , wall:  0.61 [s] <<< TIME
 
 Sorting g-vecs for an output of states on an unique "big" PW basis.
 Since the number of g's to be written on file
 was 0 or too large, it has been set to the max. value.,
 computed from the union of the sets of G vectors for the different k-points.
 Number of G-vectors is: *****
 
  ==== Info on the Cryst% object ====
 Real(R)+Recip(G) space primitive vectors, cartesian coordinates (Bohr,Bohr^-1):
 R(1)=  8.3640758  0.0000000  0.0000000  G(1)=  0.1195589  0.0000000  0.0000000
 R(2)=  0.0000000  8.7492338  0.0000000  G(2)=  0.0000000  0.1142957  0.0000000
 R(3)=  0.0000000  0.0000000 75.5890453  G(3)=  0.0000000  0.0000000  0.0132294
 Unit cell volume ucvol=  5.5315500E+03 bohr^3
 Angles (23,13,12)=  9.00000000E+01  9.00000000E+01  9.00000000E+01 degrees
 Time-reversal symmetry is present
 Reduced atomic positions [iatom, xred, symbol]:
    1)    0.4367840  0.9135660  0.4842144   C
    2)    0.5632160  0.0864340  0.5157856   C
    3)    0.9367840  0.0864340  0.5157856   C
    4)    0.0632160  0.9135660  0.4842144   C
    5)    0.0632160  0.4135660  0.5157856   C
    6)    0.9367840  0.5864340  0.4842144   C
    7)    0.5632160  0.5864340  0.4842144   C
    8)    0.4367840  0.4135660  0.5157856   C
    9)    0.4317609  0.9049388  0.5448404   C
   10)    0.5682391  0.0950612  0.4551596   C
   11)    0.9317609  0.0950612  0.4551596   C
   12)    0.0682391  0.9049388  0.5448404   C
   13)    0.0682391  0.4049388  0.4551596   C
   14)    0.9317609  0.5950612  0.5448404   C
   15)    0.5682391  0.5950612  0.5448404   C
   16)    0.4317609  0.4049388  0.4551596   C
   17)    1.0015031  0.5051690  0.4242839   F
   18)   -0.0015031  0.4948310  0.5757161   F
   19)    0.5015031  0.4948310  0.5757161   F
   20)    0.4984969  0.5051690  0.4242839   F
   21)    0.4984969  0.0051690  0.5757161   F
   22)    0.5015031  0.9948310  0.4242839   F
   23)   -0.0015031  0.9948310  0.4242839   F
   24)    1.0015031  0.0051690  0.5757161   F
 ==== K-mesh for the wavefunctions ====
 Number of points in the irreducible wedge :    16
 Reduced coordinates and weights : 
 
     1)     0.00000000E+00  0.00000000E+00  0.00000000E+00       0.02778
     2)     1.66666667E-01  0.00000000E+00  0.00000000E+00       0.05556
     3)     3.33333333E-01  0.00000000E+00  0.00000000E+00       0.05556
     4)     5.00000000E-01  0.00000000E+00  0.00000000E+00       0.02778
     5)     0.00000000E+00  1.66666667E-01  0.00000000E+00       0.05556
     6)     1.66666667E-01  1.66666667E-01  0.00000000E+00       0.11111
     7)     3.33333333E-01  1.66666667E-01  0.00000000E+00       0.11111
     8)     5.00000000E-01  1.66666667E-01  0.00000000E+00       0.05556
     9)     0.00000000E+00  3.33333333E-01  0.00000000E+00       0.05556
    10)     1.66666667E-01  3.33333333E-01  0.00000000E+00       0.11111
    11)     3.33333333E-01  3.33333333E-01  0.00000000E+00       0.11111
    12)     5.00000000E-01  3.33333333E-01  0.00000000E+00       0.05556
    13)     0.00000000E+00  5.00000000E-01  0.00000000E+00       0.02778
    14)     1.66666667E-01  5.00000000E-01  0.00000000E+00       0.05556
    15)     3.33333333E-01  5.00000000E-01  0.00000000E+00       0.05556
    16)     5.00000000E-01  5.00000000E-01  0.00000000E+00       0.02778
 
 Together with  8 symmetry operations and time-reversal symmetry 
 yields    36 points in the full Brillouin Zone.
 
 
 ==== Q-mesh for the screening function ====
 Number of points in the irreducible wedge :    16
 Reduced coordinates and weights : 
 
     1)     0.00000000E+00  0.00000000E+00  0.00000000E+00       0.02778
     2)     1.66666667E-01  0.00000000E+00  0.00000000E+00       0.05556
     3)     3.33333333E-01  0.00000000E+00  0.00000000E+00       0.05556
     4)     5.00000000E-01  0.00000000E+00  0.00000000E+00       0.02778
     5)     0.00000000E+00  1.66666667E-01  0.00000000E+00       0.05556
     6)     1.66666667E-01  1.66666667E-01  0.00000000E+00       0.11111
     7)     3.33333333E-01  1.66666667E-01  0.00000000E+00       0.11111
     8)     5.00000000E-01  1.66666667E-01  0.00000000E+00       0.05556
     9)     0.00000000E+00  3.33333333E-01  0.00000000E+00       0.05556
    10)     1.66666667E-01  3.33333333E-01  0.00000000E+00       0.11111
    11)     3.33333333E-01  3.33333333E-01  0.00000000E+00       0.11111
    12)     5.00000000E-01  3.33333333E-01  0.00000000E+00       0.05556
    13)     0.00000000E+00  5.00000000E-01  0.00000000E+00       0.02778
    14)     1.66666667E-01  5.00000000E-01  0.00000000E+00       0.05556
    15)     3.33333333E-01  5.00000000E-01  0.00000000E+00       0.05556
    16)     5.00000000E-01  5.00000000E-01  0.00000000E+00       0.02778
 
 Together with  8 symmetry operations and time-reversal symmetry 
 yields    36 points in the full Brillouin Zone.
 
 
 Optimal value for ng0sh: [1, 1, 0]
  Due to umklapp processes : ecutepspg0=    4.99350914588099     
 
 setmesh: npwwfn        =    93337; Max (m1,m2,m3)   =     13    13   120
          npweps/npwsigx=     2977; Max (mm1,mm2,mm3)=      5     5    38
          mG0 added     =   1  1  0
 calculated ecutwfn          =  49.999 [Ha] 
 calculated ecutsigx/ecuteps =   4.994 [Ha]
 using method =  2 with ecuteff =  86.594 [Ha]
 Finding a FFT mesh compatible with all the symmetries
 setmesh: divisor mesh 2 2 1
 setmesh: FFT mesh size selected  =    36x   40x  320
          total number of points  =       460800
 
  simple integral   19.4627906153127     
  q0 sphere :   1.245633454038863E-003  q0_vol cyl   1.220881059050771E-003
  spherical approximation    8075.86952597022     
  Cylindrical cutoff value    8325.92761461479     
 
 === Surface cutoff === 
 
  Cutoff radius ....................    37.7945 [Bohr] 
  Central plane passing through ....       0.00      0.00      0.00 (r.l.u) 
 
 q-points for optical limit:   1
     1)      0.000010    0.000020    0.000030
 
 ==== FFT mesh used for oscillator strengths ====
  FFT mesh divisions ........................    36   40  320
  Augmented FFT divisions ...................    37   41  320
  FFT algorithm .............................   512
  FFT cache size ............................    16
 Top of valence:  -6.1878 (eV)
 Bottom of conduction:  -1.3500 (eV)
 Fermi level: -3.7689  (eV) 
 
 Memory needed for Fourier components u(G):    765.4 [Mb] <<< MEM
 Storing wavefunctions in single precision array as `enable_gw_dpc="no"`
 Memory needed for real-space u(r):   3768.8 [Mb] <<< MEM
 Memory needed for bks_tab:      1.0 [Mb] <<< MEM
 wfd_init completed. cpu:  0.83 [s] , wall:  0.84 [s] <<< TIME
 ==== Info on the Wfd% object ====
  Number of irreducible k-points ........ 16
  Number of spinorial components ........ 1
  Number of spin-density components ..... 1
  Number of spin polarizations .......... 1
  Plane wave cutoff energy ..............  50.0
  Max number of G-vectors ............... 93588
  Total number of FFT points ............ 460800
  Number of FFT points treated by me .... 460800
 
 
 ==== FFT mesh for wavefunctions ====
  FFT mesh divisions ........................    36   40  320
  Augmented FFT divisions ...................    37   41  320
  FFT algorithm .............................   512
  FFT cache size ............................    16

 Total number of (b,k,s) states stored by this rank: 1072
 Memory allocated for Fourier components u(G):    765.4 [Mb] <<< MEM
 Memory allocated for real-space u(r):      0.0 [Mb] <<< MEM
 Memory needed for wfd%s datastructure:      0.0 [Mb] <<< MEM
 Memory needed for wfd%s(0)%k datastructure:      0.0 [Mb] <<< MEM
 Memory allocated for Kdata array:      0.0 [Mb] <<< MEM



 wfd_read_wfk: Reading file: 2F-2110_gw_o_DS2_WFK  with iomode: IO_MODE_MPI , master_only: yes
 If MPI-IO is too slow, use the command line option `abinit --enforce-fortran-io ...` 
  to make the master proc read data with Fortran-IO and then broadcast (requires more memory)
 About to read: 1072  (b, k, s) states in total.
 For spin: 1 , will read: 16  k-points.
 Reading k-point [1/16] spin [1/1] completed. cpu:  1.85 [s] , wall:  2.07 [s] <<< TIME
 Reading k-point [2/16] spin [1/1] completed. cpu:  2.00 [s] , wall:  2.15 [s] <<< TIME
 Reading k-point [3/16] spin [1/1] completed. cpu:  2.23 [s] , wall:  2.50 [s] <<< TIME
 Reading k-point [4/16] spin [1/1] completed. cpu:  1.89 [s] , wall:  2.09 [s] <<< TIME
 Reading k-point [5/16] spin [1/1] completed. cpu:  2.22 [s] , wall:  2.52 [s] <<< TIME
 Reading k-point [6/16] spin [1/1] completed. cpu:  1.88 [s] , wall:  2.21 [s] <<< TIME
 Reading k-point [7/16] spin [1/1] completed. cpu:  1.90 [s] , wall:  2.18 [s] <<< TIME
 Reading k-point [8/16] spin [1/1] completed. cpu:  1.85 [s] , wall:  2.19 [s] <<< TIME
 Reading k-point [9/16] spin [1/1] completed. cpu:  2.18 [s] , wall:  2.35 [s] <<< TIME
 Reading k-point [10/16] spin [1/1] completed. cpu:  1.89 [s] , wall:  2.10 [s] <<< TIME
 WFK IO completed. cpu: 33.57 [s] , wall: 38.26 [s] <<< TIME
 
 
  CHECK           -1         486
 planewave contribution to nelect:  120.0000
 planewave contribution to nelect:  205.2263
 Number of electrons calculated from density =  120.0000; Expected =  120.0000
 average of density, n =  0.021694
 r_s =    2.2243
 omega_plasma =   14.2077 [eV]
 
 Total charge density [el/Bohr^3]
      Maximum=    1.7621E+00  at reduced coord.    0.4630    0.4667    0.5741
      Minimum=    3.4613E-08  at reduced coord.    0.0556    0.7500    0.0288
   Integrated=    1.2000E+02
 Total kinetic energy density [Ha/Bohr^3]
      Maximum=    3.4652E+01  at reduced coord.    0.0000    0.0000    0.5761
      Minimum=    1.8336E-06  at reduced coord.    0.0556    0.1667    0.0000
   Integrated=    2.0523E+02
 
 1/G**2 cut-off applied in the following step : cutoff-mode = CRYSTAL
 
 1/G**2 cut-off applied in the following step : cutoff-mode = CRYSTAL
 
 1/G**2 cut-off applied in the following step : cutoff-mode = CRYSTAL
 
In the mGGA functional TB09, c =  0.862935
 
 calculating chi0 at frequencies [eV] :
  1    0.000000E+00    0.000000E+00
  2    0.000000E+00    1.670000E+01
 Memory required for chi0 matrix=        135.2 [Mb].
 
 
--------------------------------------------------------------------------------
  q-point number  1        q = ( 0.000000, 0.000000, 0.000000) [r.l.u.]
--------------------------------------------------------------------------------
 Q-points for long wave-length limit. #   1
     1)      0.000010    0.000020    0.000030
 
 Using spectral method for the imaginary part =  0
 Using symmetries to sum only over the IBZ_q  =  1
 Using faster algorithm based on time reversal symmetry.
 Will sum 6720 (b,b',k,s) states in chi0q0.
 Calculating chi0(q=(0,0,0),omega,G,G")
 
 ==== Little Group Info ==== 
  External point   0.00000000E+00  0.00000000E+00  0.00000000E+00
  Number of points in the IBZ defined by little group     16/   36
  Number of operations in the little group :  16/  8
 
  No time-reversal symmetry with zero umklapp:  8
  No time-reversal symmetry with non-zero umklapp:  0
 
 
  time-reversal symmetry with zero umklapp:  8
  time-reversal symmetry with non-zero umklapp:  0
 
 Calculation status (     16 to be completed):
 ik=    1/  36 spin= 1 done by mpi rank:  0
 ik=    2/  36 spin= 1 done by mpi rank:  0
 ik=    4/  36 spin= 1 done by mpi rank:  0
 ik=    6/  36 spin= 1 done by mpi rank:  0
 ik=    7/  36 spin= 1 done by mpi rank:  0
 ik=    9/  36 spin= 1 done by mpi rank:  0
 ik=   13/  36 spin= 1 done by mpi rank:  0
 ik=   17/  36 spin= 1 done by mpi rank:  0
 ik=   19/  36 spin= 1 done by mpi rank:  0
 ik=   21/  36 spin= 1 done by mpi rank:  0
 ik=   25/  36 spin= 1 done by mpi rank:  0
 ik=   29/  36 spin= 1 done by mpi rank:  0
 ik=   31/  36 spin= 1 done by mpi rank:  0
 ik=   32/  36 spin= 1 done by mpi rank:  0
 ik=   34/  36 spin= 1 done by mpi rank:  0
 ik=   36/  36 spin= 1 done by mpi rank:  0
 cpu_time =     431.0, wall_time =     432.7
  chi0(G,G') at the    1 th omega   0.0000   0.0000 [eV]
  chi0(q =  1, omega =   1, G,G')
       1       2       3       4       5       6       7       8       9
    1  -0.000   0.000  -0.000  -0.000   0.000   0.000  -0.000  -0.000   0.000
        0.000  -0.000   0.000   0.000  -0.000  -0.000   0.000   0.000   0.000
 
    2   0.000  -1.998   1.722   3.769  -2.760  -4.860   2.916   5.005  -2.251
        0.000   0.000  -0.000  -0.000   0.000   0.000  -0.000   0.000  -0.000
 
    3  -0.000   1.722  -1.998  -2.760   3.769   2.916  -4.860  -2.251   5.005
       -0.000   0.000   0.000   0.000  -0.000  -0.000   0.000   0.000  -0.000
 
    4  -0.000   3.769  -2.760  -7.656   3.964  10.680  -3.546 -12.058   1.903
       -0.000   0.000  -0.000   0.000   0.000  -0.000  -0.000   0.000   0.000
 
    5   0.000  -2.760   3.769   3.964  -7.656  -3.546  10.680   1.903 -12.058
        0.000  -0.000   0.000  -0.000   0.000   0.000  -0.000  -0.000  -0.000
 
    6   0.000  -4.860   2.916  10.680  -3.546 -16.089   2.232  19.715   0.170
        0.000  -0.000   0.000   0.000  -0.000   0.000   0.000   0.000  -0.000
 
    7  -0.000   2.916  -4.860  -3.546  10.680   2.232 -16.089   0.170  19.715
       -0.000   0.000  -0.000   0.000   0.000  -0.000   0.000   0.000   0.000
 
    8  -0.000   5.005  -2.251 -12.058   1.903  19.715   0.170 -26.176  -2.723
       -0.000  -0.000  -0.000  -0.000   0.000  -0.000  -0.000   0.000  -0.000
 
    9   0.000  -2.251   5.005   1.903 -12.058   0.170  19.715  -2.723 -26.176
       -0.000   0.000   0.000  -0.000   0.000   0.000  -0.000   0.000   0.000
 
  chi0(G,G') at the    2 th omega   0.0000  16.7000 [eV]
  chi0(q =  1, omega =   2, G,G')
       1       2       3       4       5       6       7       8       9
    1  -0.000   0.000  -0.000  -0.000   0.000   0.000  -0.000  -0.000   0.000
        0.000  -0.000   0.000   0.000  -0.000  -0.000  -0.000   0.000   0.000
 
    2   0.000  -0.774   0.637   1.461  -0.964  -1.856   0.912   1.841  -0.532
        0.000   0.000  -0.000  -0.000   0.000   0.000  -0.000   0.000  -0.000
 
    3  -0.000   0.637  -0.774  -0.964   1.461   0.912  -1.856  -0.532   1.841
       -0.000   0.000   0.000  -0.000  -0.000  -0.000   0.000   0.000  -0.000
 
    4  -0.000   1.461  -0.964  -3.033   1.227   4.263  -0.818  -4.779  -0.022
       -0.000   0.000   0.000   0.000   0.000  -0.000  -0.000   0.000   0.000
 
    5   0.000  -0.964   1.461   1.227  -3.033  -0.818   4.263  -0.022  -4.779
        0.000  -0.000   0.000  -0.000   0.000   0.000  -0.000  -0.000  -0.000
 
    6   0.000  -1.856   0.912   4.263  -0.818  -6.597  -0.018   8.191   1.123
        0.000  -0.000   0.000   0.000  -0.000   0.000   0.000   0.000  -0.000
 
    7  -0.000   0.912  -1.856  -0.818   4.263  -0.018  -6.597   1.123   8.191
        0.000   0.000  -0.000   0.000   0.000  -0.000   0.000   0.000   0.000
 
    8  -0.000   1.841  -0.532  -4.779  -0.022   8.191   1.123 -11.207  -2.132
       -0.000  -0.000  -0.000  -0.000   0.000  -0.000  -0.000   0.000  -0.000
 
    9   0.000  -0.532   1.841  -0.022  -4.779   1.123   8.191  -2.132 -11.207
       -0.000   0.000   0.000  -0.000   0.000   0.000  -0.000   0.000   0.000
 
 Analyzing long wavelength limit for several q
 For q-point:  0.000010 0.000020 0.000030
  dielectric constant =   1.0004
  dielectric constant without local fields =   1.0004
 
  Average fulfillment of the sum rule on Im[epsilon] for q-point    1 :    155.07  [%]
 
 
--------------------------------------------------------------------------------
  q-point number  2        q = ( 0.166667, 0.000000, 0.000000) [r.l.u.]
--------------------------------------------------------------------------------
 Using spectral method for the imaginary part =  0
 Using symmetries to sum only over the IBZ_q  =  1
 Using faster algorithm based on time reversal symmetry.
 Will sum 10080 (b,b',k,s) states in chi0.
 Calculating chi0(q,omega,G,G")
 
 ==== Little Group Info ==== 
  External point   1.66666667E-01  0.00000000E+00  0.00000000E+00
  Number of points in the IBZ defined by little group     24/   36
  Number of operations in the little group :   8/  8
 
  No time-reversal symmetry with zero umklapp:  4
  No time-reversal symmetry with non-zero umklapp:  0
 
 
  time-reversal symmetry with zero umklapp:  4
  time-reversal symmetry with non-zero umklapp:  0
 
 Calculation status :     24 to be completed
 ik=    1/  36 spin=  1 done by mpi rank:  0
 ik=    2/  36 spin=  1 done by mpi rank:  0
 ik=    3/  36 spin=  1 done by mpi rank:  0
 ik=    4/  36 spin=  1 done by mpi rank:  0
 ik=    5/  36 spin=  1 done by mpi rank:  0
 ik=    6/  36 spin=  1 done by mpi rank:  0
 ik=    7/  36 spin=  1 done by mpi rank:  0
 ik=    9/  36 spin=  1 done by mpi rank:  0
 ik=   10/  36 spin=  1 done by mpi rank:  0
 ik=   13/  36 spin=  1 done by mpi rank:  0
 ik=   14/  36 spin=  1 done by mpi rank:  0
 ik=   17/  36 spin=  1 done by mpi rank:  0
 ik=   19/  36 spin=  1 done by mpi rank:  0
 ik=   21/  36 spin=  1 done by mpi rank:  0
 ik=   22/  36 spin=  1 done by mpi rank:  0
 ik=   25/  36 spin=  1 done by mpi rank:  0
 ik=   26/  36 spin=  1 done by mpi rank:  0
 ik=   29/  36 spin=  1 done by mpi rank:  0
 ik=   31/  36 spin=  1 done by mpi rank:  0
 ik=   32/  36 spin=  1 done by mpi rank:  0
 ik=   33/  36 spin=  1 done by mpi rank:  0
 ik=   34/  36 spin=  1 done by mpi rank:  0
 ik=   35/  36 spin=  1 done by mpi rank:  0
 ik=   36/  36 spin=  1 done by mpi rank:  0
 cpu_time =     423.9, wall_time =     425.6
  chi0(G,G') at the    1 th omega   0.0000   0.0000 [eV]
  chi0(q =  2, omega =   1, G,G')
       1       2       3       4       5       6       7       8       9
    1  -4.706   4.526   4.526  -4.017  -4.017   3.265   3.265  -2.392  -2.392
        0.000   0.000   0.000  -0.000   0.000   0.000  -0.000  -0.000  -0.000
 
    2   4.526  -6.592  -2.396   8.080   0.679  -8.589   0.317   7.953  -0.523
       -0.000   0.000  -0.000   0.000  -0.000  -0.000   0.000   0.000  -0.000
 
    3   4.526  -2.396  -6.592   0.679   8.080   0.317  -8.589  -0.523   7.953
       -0.000   0.000   0.000   0.000  -0.000  -0.000   0.000   0.000  -0.000
 
    4  -4.017   8.080   0.679 -11.930   1.292  14.598  -1.708 -15.363   0.845
        0.000  -0.000  -0.000   0.000   0.000  -0.000  -0.000   0.000   0.000
 
    5  -4.017   0.679   8.080   1.292 -11.930  -1.708  14.598   0.845 -15.363
       -0.000   0.000   0.000  -0.000   0.000   0.000   0.000  -0.000  -0.000
 
    6   3.265  -8.589   0.317  14.598  -1.708 -19.891   1.134  23.124   0.646
       -0.000   0.000   0.000   0.000  -0.000   0.000   0.000  -0.000  -0.000
 
    7   3.265   0.317  -8.589  -1.708  14.598   1.134 -19.891   0.646  23.124
        0.000  -0.000  -0.000   0.000  -0.000  -0.000   0.000   0.000   0.000
 
    8  -2.392   7.953  -0.523 -15.363   0.845  23.124   0.646 -29.422  -2.773
        0.000  -0.000  -0.000  -0.000   0.000   0.000  -0.000   0.000   0.000
 
    9  -2.392  -0.523   7.953   0.845 -15.363   0.646  23.124  -2.773 -29.422
        0.000   0.000   0.000  -0.000   0.000   0.000  -0.000  -0.000   0.000
 
  chi0(G,G') at the    2 th omega   0.0000  16.7000 [eV]
  chi0(q =  2, omega =   2, G,G')
       1       2       3       4       5       6       7       8       9
    1  -1.636   1.561   1.561  -1.351  -1.351   1.045   1.045  -0.697  -0.697
        0.000  -0.000   0.000  -0.000   0.000   0.000  -0.000  -0.000   0.000
 
    2   1.561  -2.390  -0.732   2.984   0.109  -3.158   0.185   2.833  -0.144
        0.000   0.000  -0.000   0.000   0.000  -0.000   0.000   0.000  -0.000
 
    3   1.561  -0.732  -2.390   0.109   2.984   0.185  -3.158  -0.144   2.833
       -0.000   0.000   0.000  -0.000  -0.000  -0.000   0.000   0.000  -0.000
 
    4  -1.351   2.984   0.109  -4.590   0.489   5.714  -0.417  -6.002  -0.138
        0.000  -0.000   0.000   0.000   0.000  -0.000  -0.000   0.000   0.000
 
    5  -1.351   0.109   2.984   0.489  -4.590  -0.417   5.714  -0.138  -6.002
       -0.000  -0.000   0.000  -0.000   0.000   0.000   0.000  -0.000  -0.000
 
    6   1.045  -3.158   0.185   5.714  -0.417  -8.063  -0.138   9.541   1.045
       -0.000   0.000   0.000   0.000  -0.000   0.000   0.000  -0.000  -0.000
 
    7   1.045   0.185  -3.158  -0.417   5.714  -0.138  -8.063   1.045   9.541
        0.000  -0.000  -0.000   0.000  -0.000  -0.000   0.000   0.000   0.000
 
    8  -0.697   2.833  -0.144  -6.002  -0.138   9.541   1.045 -12.558  -1.953
        0.000  -0.000  -0.000  -0.000   0.000   0.000  -0.000   0.000   0.000
 
    9  -0.697  -0.144   2.833  -0.138  -6.002   1.045   9.541  -1.953 -12.558
       -0.000   0.000   0.000  -0.000   0.000   0.000  -0.000  -0.000   0.000
 
  Average fulfillment of the sum rule on Im[epsilon] for q-point    2 :     77.07  [%]
 
 
--------------------------------------------------------------------------------
  q-point number  3        q = ( 0.333333, 0.000000, 0.000000) [r.l.u.]
--------------------------------------------------------------------------------
 Using spectral method for the imaginary part =  0
 Using symmetries to sum only over the IBZ_q  =  1
 Using faster algorithm based on time reversal symmetry.
 Will sum 10080 (b,b',k,s) states in chi0.
 Calculating chi0(q,omega,G,G")
 
 ==== Little Group Info ==== 
  External point   3.33333333E-01  0.00000000E+00  0.00000000E+00
  Number of points in the IBZ defined by little group     24/   36
  Number of operations in the little group :   8/  8
 
  No time-reversal symmetry with zero umklapp:  4
  No time-reversal symmetry with non-zero umklapp:  0
 
 
  time-reversal symmetry with zero umklapp:  4
  time-reversal symmetry with non-zero umklapp:  0
 
 Calculation status :     24 to be completed
 ik=    1/  36 spin=  1 done by mpi rank:  0
 ik=    2/  36 spin=  1 done by mpi rank:  0
 ik=    3/  36 spin=  1 done by mpi rank:  0
 ik=    4/  36 spin=  1 done by mpi rank:  0
 ik=    5/  36 spin=  1 done by mpi rank:  0
 ik=    6/  36 spin=  1 done by mpi rank:  0
 ik=    7/  36 spin=  1 done by mpi rank:  0
 ik=    9/  36 spin=  1 done by mpi rank:  0
 ik=   10/  36 spin=  1 done by mpi rank:  0
 ik=   13/  36 spin=  1 done by mpi rank:  0
 ik=   14/  36 spin=  1 done by mpi rank:  0
 ik=   17/  36 spin=  1 done by mpi rank:  0
 ik=   19/  36 spin=  1 done by mpi rank:  0
 ik=   21/  36 spin=  1 done by mpi rank:  0
 ik=   22/  36 spin=  1 done by mpi rank:  0
 ik=   25/  36 spin=  1 done by mpi rank:  0
 ik=   26/  36 spin=  1 done by mpi rank:  0
 ik=   29/  36 spin=  1 done by mpi rank:  0
 ik=   31/  36 spin=  1 done by mpi rank:  0
 ik=   32/  36 spin=  1 done by mpi rank:  0
 ik=   33/  36 spin=  1 done by mpi rank:  0
 ik=   34/  36 spin=  1 done by mpi rank:  0
 ik=   35/  36 spin=  1 done by mpi rank:  0
 ik=   36/  36 spin=  1 done by mpi rank:  0
 cpu_time =     425.6, wall_time =     427.3
  chi0(G,G') at the    1 th omega   0.0000   0.0000 [eV]
  chi0(q =  3, omega =   1, G,G')
       1       2       3       4       5       6       7       8       9
    1 -16.200  15.566  15.566 -13.774 -13.774  11.132  11.132  -8.074  -8.074
        0.000  -0.000   0.000  -0.000   0.000   0.000  -0.000  -0.000   0.000
 
    2  15.566 -17.847 -12.366  18.666   8.905 -17.744  -5.780  15.164   3.393
        0.000   0.000  -0.000   0.000  -0.000  -0.000   0.000   0.000  -0.000
 
    3  15.566 -12.366 -17.847   8.905  18.666  -5.780 -17.744   3.393  15.164
       -0.000   0.000   0.000   0.000  -0.000  -0.000   0.000   0.000  -0.000
 
    4 -13.774  18.666   8.905 -22.509  -4.952  24.347   2.420 -23.617  -1.343
        0.000  -0.000  -0.000   0.000   0.000  -0.000  -0.000   0.000   0.000
 
    5 -13.774   8.905  18.666  -4.952 -22.509   2.420  24.347  -1.343 -23.617
       -0.000   0.000   0.000  -0.000   0.000   0.000   0.000  -0.000  -0.000
 
    6  11.132 -17.744  -5.780  24.347   2.420 -29.454  -1.125  31.770   1.387
       -0.000   0.000   0.000   0.000  -0.000   0.000   0.000   0.000  -0.000
 
    7  11.132  -5.780 -17.744   2.420  24.347  -1.125 -29.454   1.387  31.770
        0.000  -0.000  -0.000   0.000  -0.000  -0.000   0.000   0.000   0.000
 
    8  -8.074  15.164   3.393 -23.617  -1.343  31.770   1.387 -37.762  -2.510
        0.000  -0.000  -0.000  -0.000   0.000  -0.000  -0.000   0.000  -0.000
 
    9  -8.074   3.393  15.164  -1.343 -23.617   1.387  31.770  -2.510 -37.762
       -0.000   0.000   0.000  -0.000   0.000   0.000  -0.000   0.000   0.000
 
  chi0(G,G') at the    2 th omega   0.0000  16.7000 [eV]
  chi0(q =  3, omega =   2, G,G')
       1       2       3       4       5       6       7       8       9
    1  -6.220   5.934   5.934  -5.130  -5.130   3.957   3.957  -2.624  -2.624
        0.000   0.000   0.000  -0.000   0.000   0.000  -0.000  -0.000   0.000
 
    2   5.934  -6.919  -4.557   7.253   3.096  -6.801  -1.822   5.603   0.907
       -0.000   0.000  -0.000   0.000  -0.000  -0.000   0.000   0.000  -0.000
 
    3   5.934  -4.557  -6.919   3.096   7.253  -1.822  -6.801   0.907   5.603
       -0.000   0.000   0.000   0.000  -0.000  -0.000   0.000   0.000  -0.000
 
    4  -5.130   7.253   3.096  -8.962  -1.546   9.786   0.668  -9.436  -0.425
        0.000  -0.000  -0.000   0.000   0.000  -0.000  -0.000   0.000   0.000
 
    5  -5.130   3.096   7.253  -1.546  -8.962   0.668   9.786  -0.425  -9.436
       -0.000   0.000   0.000  -0.000   0.000   0.000   0.000  -0.000  -0.000
 
    6   3.957  -6.801  -1.822   9.786   0.668 -12.188  -0.432  13.341   0.786
       -0.000   0.000   0.000   0.000  -0.000   0.000   0.000  -0.000  -0.000
 
    7   3.957  -1.822  -6.801   0.668   9.786  -0.432 -12.188   0.786  13.341
        0.000  -0.000  -0.000   0.000  -0.000  -0.000   0.000   0.000   0.000
 
    8  -2.624   5.603   0.907  -9.436  -0.425  13.341   0.786 -16.369  -1.421
        0.000  -0.000  -0.000  -0.000   0.000   0.000  -0.000   0.000   0.000
 
    9  -2.624   0.907   5.603  -0.425  -9.436   0.786  13.341  -1.421 -16.369
       -0.000   0.000   0.000  -0.000   0.000   0.000  -0.000  -0.000   0.000
 
  Average fulfillment of the sum rule on Im[epsilon] for q-point    3 :     72.57  [%]
 
 
--------------------------------------------------------------------------------
  q-point number  4        q = ( 0.500000, 0.000000, 0.000000) [r.l.u.]
--------------------------------------------------------------------------------
 Using spectral method for the imaginary part =  0
 Using symmetries to sum only over the IBZ_q  =  1
 Using faster algorithm based on time reversal symmetry.
 Will sum 10080 (b,b',k,s) states in chi0.
 Calculating chi0(q,omega,G,G")
 
 ==== Little Group Info ==== 
  External point   5.00000000E-01  0.00000000E+00  0.00000000E+00
  Number of points in the IBZ defined by little group     24/   36
  Number of operations in the little group :   8/  8
 
  No time-reversal symmetry with zero umklapp:  4
  No time-reversal symmetry with non-zero umklapp:  0
 
 
  time-reversal symmetry with zero umklapp:  4
  time-reversal symmetry with non-zero umklapp:  0
 
 Calculation status :     24 to be completed
 ik=    1/  36 spin=  1 done by mpi rank:  0
 ik=    2/  36 spin=  1 done by mpi rank:  0
 ik=    3/  36 spin=  1 done by mpi rank:  0
 ik=    4/  36 spin=  1 done by mpi rank:  0
 ik=    5/  36 spin=  1 done by mpi rank:  0
 ik=    6/  36 spin=  1 done by mpi rank:  0
 ik=    7/  36 spin=  1 done by mpi rank:  0
 ik=    9/  36 spin=  1 done by mpi rank:  0
 ik=   10/  36 spin=  1 done by mpi rank:  0
 ik=   13/  36 spin=  1 done by mpi rank:  0
 ik=   14/  36 spin=  1 done by mpi rank:  0
 ik=   17/  36 spin=  1 done by mpi rank:  0
 ik=   19/  36 spin=  1 done by mpi rank:  0
 ik=   21/  36 spin=  1 done by mpi rank:  0
 ik=   22/  36 spin=  1 done by mpi rank:  0
 ik=   25/  36 spin=  1 done by mpi rank:  0
 ik=   26/  36 spin=  1 done by mpi rank:  0
 ik=   29/  36 spin=  1 done by mpi rank:  0
 ik=   31/  36 spin=  1 done by mpi rank:  0
 ik=   32/  36 spin=  1 done by mpi rank:  0
 ik=   33/  36 spin=  1 done by mpi rank:  0
 ik=   34/  36 spin=  1 done by mpi rank:  0
 ik=   35/  36 spin=  1 done by mpi rank:  0
 ik=   36/  36 spin=  1 done by mpi rank:  0
 cpu_time =     425.4, wall_time =     427.2
  chi0(G,G') at the    1 th omega   0.0000   0.0000 [eV]
  chi0(q =  4, omega =   1, G,G')
       1       2       3       4       5       6       7       8       9
    1 -29.867  28.660  28.660 -25.253 -25.253  20.238  20.238 -14.452 -14.452
        0.000  -0.000   0.000  -0.000   0.000   0.000  -0.000   0.000   0.000
 
    2  28.660 -31.286 -24.044  31.326  18.338 -28.653 -12.519  23.662   7.424
        0.000   0.000  -0.000   0.000  -0.000  -0.000   0.000   0.000  -0.000
 
    3  28.660 -24.044 -31.286  18.338  31.326 -12.519 -28.653   7.424  23.662
       -0.000   0.000   0.000   0.000  -0.000  -0.000   0.000   0.000  -0.000
 
    4 -25.253  31.326  18.338 -35.294 -11.819  36.198   6.619 -33.661  -3.173
        0.000  -0.000  -0.000   0.000   0.000  -0.000  -0.000   0.000   0.000
 
    5 -25.253  18.338  31.326 -11.819 -35.294   6.619  36.198  -3.173 -33.661
       -0.000   0.000   0.000  -0.000   0.000   0.000   0.000  -0.000  -0.000
 
[...]
                       0.000000  0.000000  0.000000  0.000000  0.000000  0.000000
                       0.000000  0.000000  0.000000  0.000000  0.000000  0.000000
                       0.000000  0.000000  0.000000  0.000000  0.000000  0.000000
                       0.000000  0.000000  0.000000  0.000000  0.000000  0.000000
                       0.000000  0.000000  0.000000  0.000000  0.000000  0.000000
                       0.000000  0.000000  0.000000  0.000000  0.000000  0.000000
                       0.000000  0.000000  0.000000  0.000000  0.000000  0.000000
                       0.000000  0.000000  0.000000  0.000000  0.000000  0.000000
                       0.000000  0.000000  0.000000  0.000000  0.000000  0.000000
                       0.000000  0.000000  0.000000  0.000000  0.000000  0.000000
                       0.000000  0.000000  0.000000  0.000000  0.000000  0.000000
                       0.000000  0.000000  0.000000  0.000000  0.000000  0.000000
                       0.000000  0.000000  0.000000  0.000000  0.000000  0.000000
                       0.000000  0.000000  0.000000  0.000000  0.000000  0.000000
                       0.000000  0.000000  0.000000  0.000000  0.000000  0.000000
                       0.000000  0.000000  0.000000  0.000000  0.000000  0.000000
                       0.000000  0.000000  0.000000  0.000000  0.000000  0.000000
                       0.000000  0.000000  0.000000  0.000000  0.000000  0.000000
                       0.000000  0.000000  0.000000  0.000000  0.000000  0.000000
                       0.000000  0.000000  0.000000  0.000000  0.000000  0.000000
                       0.000000  0.000000  0.000000  0.000000  0.000000  0.000000
                       0.000000  0.000000  0.000000  0.000000  0.000000  0.000000
                       0.000000  0.000000  0.000000  0.000000  0.000000  0.000000
                       0.000000  0.000000  0.000000  0.000000  0.000000  0.000000
                       0.000000  0.000000  0.000000  0.000000  0.000000  0.000000
                       0.000000  0.000000  0.000000  0.000000  0.000000  0.000000
                       0.000000  0.000000  0.000000  0.000000  0.000000  0.000000
                       0.000000  0.000000  0.000000  0.000000  0.000000  0.000000
                       0.000000  0.000000  0.000000  0.000000  0.000000  0.000000
                       0.000000  0.000000  0.000000  0.000000  0.000000  0.000000
                       0.000000  0.000000  0.000000  0.000000  0.000000  0.000000
                       0.000000  0.000000  0.000000  0.000000  0.000000  0.000000
                       0.000000  0.000000  0.000000  0.000000  0.000000  0.000000
                       0.000000  0.000000  0.000000  0.000000  0.000000  0.000000
                       0.000000  0.000000  0.000000  0.000000  0.000000  0.000000
                       0.000000  0.000000  0.000000  0.000000  0.000000  0.000000
                       0.000000  0.000000  0.000000  0.000000  0.000000  0.000000
                       0.000000  0.000000  0.000000  0.000000  0.000000  0.000000
                       0.000000  0.000000  0.000000  0.000000  0.000000  0.000000
                       0.000000  0.000000  0.000000  0.000000  0.000000  0.000000
                       0.000000  0.000000  0.000000  0.000000  0.000000  0.000000
                       0.000000  0.000000  0.000000  0.000000  0.000000  0.000000
                       0.000000  0.000000  0.000000  0.000000  0.000000  0.000000
                       0.000000  0.000000  0.000000  0.000000  0.000000  0.000000
                       0.000000  0.000000  0.000000  0.000000  0.000000  0.000000
                       0.000000  0.000000  0.000000  0.000000  0.000000  0.000000
                       0.000000  0.000000  0.000000  0.000000  0.000000  0.000000
                       0.000000  0.000000  0.000000  0.000000  0.000000  0.000000
                       0.000000  0.000000  0.000000  0.000000  0.000000  0.000000
                       0.000000  0.000000  0.000000  0.000000  0.000000  0.000000
                       0.000000  0.000000  0.000000  0.000000  0.000000  0.000000
                       0.000000  0.000000  0.000000  0.000000  0.000000  0.000000
                       0.000000  0.000000  0.000000  0.000000  0.000000  0.000000
                       0.000000  0.000000  0.000000  0.000000  0.000000  0.000000
                       0.000000  0.000000  0.000000  0.000000  0.000000  0.000000
                       0.000000  0.000000  0.000000  0.000000  0.000000  0.000000
                       0.000000  0.000000  0.000000  0.000000  0.000000  0.000000
                       0.000000  0.000000  0.000000  0.000000  0.000000  0.000000
                       0.000000  0.000000  0.000000  0.000000  0.000000  0.000000
                       0.000000  0.000000  0.000000  0.000000  0.000000  0.000000
                       0.000000  0.000000  0.000000  0.000000  0.000000  0.000000
                       0.000000  0.000000  0.000000  0.000000  0.000000  0.000000
                       0.000000  0.000000  0.000000  0.000000  0.000000  0.000000
                       0.000000  0.000000  0.000000  0.000000  0.000000  0.000000
                       0.000000  0.000000  0.000000  0.000000  0.000000  0.000000
                       0.000000  0.000000  0.000000  0.000000  0.000000  0.000000
                       0.000000  0.000000  0.000000  0.000000  0.000000  0.000000
                       0.000000  0.000000  0.000000  0.000000  0.000000  0.000000
                       0.000000  0.000000  0.000000  0.000000  0.000000  0.000000
                       0.000000  0.000000  0.000000  0.000000  0.000000  0.000000
                       0.000000  0.000000  0.000000  0.000000  0.000000  0.000000
                       0.000000  0.000000  0.000000  0.000000  0.000000  0.000000
                       0.000000  0.000000  0.000000  0.000000  0.000000  0.000000
                       0.000000  0.000000  0.000000  0.000000  0.000000  0.000000
                       0.000000  0.000000  0.000000  0.000000  0.000000  0.000000
                       0.000000  0.000000  0.000000  0.000000  0.000000  0.000000
                       0.000000  0.000000  0.000000  0.000000  0.000000  0.000000
                       0.000000  0.000000  0.000000  0.000000  0.000000  0.000000
                       0.000000  0.000000  0.000000  0.000000  0.000000  0.000000
                       0.000000  0.000000  0.000000  0.000000  0.000000  0.000000
        optdriver3          3
        optdriver4          4
           ppmfrq3     6.13713734E-01 Hartree
           ppmfrq4     0.00000000E+00 Hartree
          spgroup          57
           strten3     0.0000000000E+00  0.0000000000E+00  0.0000000000E+00
                       0.0000000000E+00  0.0000000000E+00  0.0000000000E+00
           strten4     0.0000000000E+00  0.0000000000E+00  0.0000000000E+00
                       0.0000000000E+00  0.0000000000E+00  0.0000000000E+00
           symrel      1  0  0   0  1  0   0  0  1      -1  0  0   0 -1  0   0  0 -1
                      -1  0  0   0  1  0   0  0 -1       1  0  0   0 -1  0   0  0  1
                      -1  0  0   0 -1  0   0  0  1       1  0  0   0  1  0   0  0 -1
                       1  0  0   0 -1  0   0  0 -1      -1  0  0   0  1  0   0  0  1
            tnons      0.0000000  0.0000000  0.0000000    -0.0000000 -0.0000000  0.0000000
                       0.5000000  0.5000000  0.0000000     0.5000000  0.5000000  0.0000000
                      -0.0000000  0.5000000  0.0000000     0.0000000  0.5000000  0.0000000
                       0.5000000 -0.0000000  0.0000000     0.5000000  0.0000000  0.0000000
           toldfe      1.00000000E-08 Hartree
           tolsym      1.00000000E-04
            typat      1  1  1  1  1  1  1  1  1  1  1  1  1  1  1  1  2  2  2  2
                       2  2  2  2
          usekden           1
          vcutgeo      1.0000000  1.0000000  0.0000000
              wtk        0.02778    0.05556    0.05556    0.02778    0.05556    0.11111
                         0.11111    0.05556    0.05556    0.11111    0.11111    0.05556
                         0.02778    0.05556    0.05556    0.02778
           xangst      1.9332403955E+00  4.2297149319E+00  1.9368575677E+01
                       2.4928378933E+00  4.0018016603E-01  2.0631424323E+01
                       4.1462795400E+00  4.0018016603E-01  2.0631424323E+01
                       2.7979874887E-01  4.2297149319E+00  1.9368575677E+01
                       2.7979874887E-01  1.9147673829E+00  2.0631424323E+01
                       4.1462795400E+00  2.7151277150E+00  1.9368575677E+01
                       2.4928378933E+00  2.7151277150E+00  1.9368575677E+01
                       1.9332403955E+00  1.9147673829E+00  2.0631424323E+01
                       1.9110075072E+00  4.1897715104E+00  2.1793616530E+01
                       2.5150707817E+00  4.4012358755E-01  1.8206383470E+01
                       4.1240466516E+00  4.4012358755E-01  1.8206383470E+01
                       3.0203163722E-01  4.1897715104E+00  2.1793616530E+01
                       3.0203163722E-01  1.8748239614E+00  1.8206383470E+01
                       4.1240466516E+00  2.7550711365E+00  2.1793616530E+01
                       2.5150707817E+00  2.7550711365E+00  2.1793616530E+01
                       1.9110075072E+00  1.8748239614E+00  1.8206383470E+01
                       4.4327310661E+00  2.3388795412E+00  1.6971354245E+01
                      -6.6527773207E-03  2.2910155568E+00  2.3028645755E+01
                       2.2196919217E+00  2.2910155568E+00  2.3028645755E+01
                       2.2063863671E+00  2.3388795412E+00  1.6971354245E+01
                       2.2063863671E+00  2.3931992201E-02  2.3028645755E+01
                       2.2196919217E+00  4.6059631057E+00  1.6971354245E+01
                      -6.6527773207E-03  4.6059631057E+00  1.6971354245E+01
                       4.4327310661E+00  2.3931992201E-02  2.3028645755E+01
            xcart      3.6532948966E+00  7.9930028415E+00  3.6601303613E+01
                       4.7107809120E+00  7.5623091761E-01  3.8987741702E+01
                       7.8353328009E+00  7.5623091761E-01  3.8987741702E+01
                       5.2874300768E-01  7.9930028415E+00  3.6601303613E+01
                       5.2874300768E-01  3.6183859619E+00  3.8987741702E+01
                       7.8353328009E+00  5.1308477972E+00  3.6601303613E+01
                       4.7107809120E+00  5.1308477972E+00  3.6601303613E+01
                       3.6532948966E+00  3.6183859619E+00  3.8987741702E+01
                       3.6112808264E+00  7.9175207140E+00  4.1183966687E+01
                       4.7527949822E+00  8.3171304510E-01  3.4405078628E+01
                       7.7933187308E+00  8.3171304510E-01  3.4405078628E+01
                       5.7075707781E-01  7.9175207140E+00  4.1183966687E+01
                       5.7075707781E-01  3.5429038344E+00  3.4405078628E+01
                       7.7933187308E+00  5.2063299246E+00  4.1183966687E+01
                       4.7527949822E+00  5.2063299246E+00  4.1183966687E+01
                       3.6112808264E+00  3.5429038344E+00  3.4405078628E+01
                       8.3766477357E+00  4.4198417906E+00  3.2071211627E+01
                      -1.2571927159E-02  4.3293919685E+00  4.3517833688E+01
                       4.1946098314E+00  4.3293919685E+00  4.3517833688E+01
                       4.1694659772E+00  4.4198417906E+00  3.2071211627E+01
                       4.1694659772E+00  4.5224911075E-02  4.3517833688E+01
                       4.1946098314E+00  8.7040088480E+00  3.2071211627E+01
                      -1.2571927159E-02  8.7040088480E+00  3.2071211627E+01
                       8.3766477357E+00  4.5224911075E-02  4.3517833688E+01
             xred      4.3678404884E-01  9.1356604036E-01  4.8421439192E-01
                       5.6321595114E-01  8.6433959639E-02  5.1578560808E-01
                       9.3678404884E-01  8.6433959639E-02  5.1578560808E-01
                       6.3215951144E-02  9.1356604036E-01  4.8421439192E-01
                       6.3215951144E-02  4.1356604036E-01  5.1578560808E-01
                       9.3678404884E-01  5.8643395964E-01  4.8421439192E-01
                       5.6321595114E-01  5.8643395964E-01  4.8421439192E-01
                       4.3678404884E-01  4.1356604036E-01  5.1578560808E-01
                       4.3176089134E-01  9.0493875601E-01  5.4484041325E-01
                       5.6823910864E-01  9.5061243990E-02  4.5515958675E-01
                       9.3176089134E-01  9.5061243990E-02  4.5515958675E-01
                       6.8239108643E-02  9.0493875601E-01  5.4484041325E-01
                       6.8239108643E-02  4.0493875601E-01  4.5515958675E-01
                       9.3176089134E-01  5.9506124399E-01  5.4484041325E-01
                       5.6823910864E-01  5.9506124399E-01  5.4484041325E-01
                       4.3176089134E-01  4.0493875601E-01  4.5515958675E-01
                       1.0015030862E+00  5.0516901392E-01  4.2428385612E-01
                      -1.5030862282E-03  4.9483098608E-01  5.7571614388E-01
                       5.0150308622E-01  4.9483098608E-01  5.7571614388E-01
                       4.9849691377E-01  5.0516901392E-01  4.2428385612E-01
                       4.9849691377E-01  5.1690139182E-03  5.7571614388E-01
                       5.0150308622E-01  9.9483098608E-01  4.2428385612E-01
                      -1.5030862282E-03  9.9483098608E-01  4.2428385612E-01
                       1.0015030862E+00  5.1690139182E-03  5.7571614388E-01
            znucl        6.00000    9.00000
 
================================================================================
  

================================================================================

 Suggested references for the acknowledgment of ABINIT usage.

 The users of ABINIT have little formal obligations with respect to the ABINIT group
 (those specified in the GNU General Public License, http://www.gnu.org/copyleft/gpl.txt).
 However, it is common practice in the scientific literature,
 to acknowledge the efforts of people that have made the research possible.
 In this spirit, please find below suggested citations of work written by ABINIT developers,
 corresponding to implementations inside of ABINIT that you have used in the present run.
 Note also that it will be of great value to readers of publications presenting these results,
 to read papers enabling them to understand the theoretical formalism and details
 of the ABINIT implementation.
 For information on why they are suggested, see also https://docs.abinit.org/theory/acknowledgments.
-
- [1] Libxc: A library of exchange and correlation functionals for density functional theory.
- M.A.L. Marques, M.J.T. Oliveira, T. Burnus, Computer Physics Communications 183, 2227 (2012).
- Comment: to be cited when LibXC is used (negative value of ixc)
- Strong suggestion to cite this paper.
- DOI and bibtex: see https://docs.abinit.org/theory/bibliography/#marques2012
-
- [2] The Abinit project: Impact, environment and recent developments.
- Computer Phys. Comm. 248, 107042 (2020).
- X.Gonze, B. Amadon, G. Antonius, F.Arnardi, L.Baguet, J.-M.Beuken,
- J.Bieder, F.Bottin, J.Bouchet, E.Bousquet, N.Brouwer, F.Bruneval,
- G.Brunin, T.Cavignac, J.-B. Charraud, Wei Chen, M.Cote, S.Cottenier,
- J.Denier, G.Geneste, Ph.Ghosez, M.Giantomassi, Y.Gillet, O.Gingras,
- D.R.Hamann, G.Hautier, Xu He, N.Helbig, N.Holzwarth, Y.Jia, F.Jollet,
- W.Lafargue-Dit-Hauret, K.Lejaeghere, M.A.L.Marques, A.Martin, C.Martins,
- H.P.C. Miranda, F.Naccarato, K. Persson, G.Petretto, V.Planes, Y.Pouillon,
- S.Prokhorenko, F.Ricci, G.-M.Rignanese, A.H.Romero, M.M.Schmitt, M.Torrent,
- M.J.van Setten, B.Van Troeye, M.J.Verstraete, G.Zerah and J.W.Zwanzig
- Comment: the fifth generic paper describing the ABINIT project.
- Note that a version of this paper, that is not formatted for Computer Phys. Comm. 
- is available at https://www.abinit.org/sites/default/files/ABINIT20.pdf .
- The licence allows the authors to put it on the Web.
- DOI and bibtex: see https://docs.abinit.org/theory/bibliography/#gonze2020
-
- [3] ABINIT: Overview, and focus on selected capabilities
- J. Chem. Phys. 152, 124102 (2020).
- A. Romero, D.C. Allan, B. Amadon, G. Antonius, T. Applencourt, L.Baguet,
- J.Bieder, F.Bottin, J.Bouchet, E.Bousquet, F.Bruneval,
- G.Brunin, D.Caliste, M.Cote,
- J.Denier, C. Dreyer, Ph.Ghosez, M.Giantomassi, Y.Gillet, O.Gingras,
- D.R.Hamann, G.Hautier, F.Jollet, G. Jomard,
- A.Martin, 
- H.P.C. Miranda, F.Naccarato, G.Petretto, N.A. Pike, V.Planes,
- S.Prokhorenko, T. Rangel, F.Ricci, G.-M.Rignanese, M.Royo, M.Stengel, M.Torrent,
- M.J.van Setten, B.Van Troeye, M.J.Verstraete, J.Wiktor, J.W.Zwanziger, and X.Gonze.
- Comment: a global overview of ABINIT, with focus on selected capabilities .
- Note that a version of this paper, that is not formatted for J. Chem. Phys 
- is available at https://www.abinit.org/sites/default/files/ABINIT20_JPC.pdf .
- The licence allows the authors to put it on the Web.
- DOI and bibtex: see https://docs.abinit.org/theory/bibliography/#romero2020
-
- [4] Recent developments in the ABINIT software package.
- Computer Phys. Comm. 205, 106 (2016).
- X.Gonze, F.Jollet, F.Abreu Araujo, D.Adams, B.Amadon, T.Applencourt,
- C.Audouze, J.-M.Beuken, J.Bieder, A.Bokhanchuk, E.Bousquet, F.Bruneval
- D.Caliste, M.Cote, F.Dahm, F.Da Pieve, M.Delaveau, M.Di Gennaro,
- B.Dorado, C.Espejo, G.Geneste, L.Genovese, A.Gerossier, M.Giantomassi,
- Y.Gillet, D.R.Hamann, L.He, G.Jomard, J.Laflamme Janssen, S.Le Roux,
- A.Levitt, A.Lherbier, F.Liu, I.Lukacevic, A.Martin, C.Martins,
- M.J.T.Oliveira, S.Ponce, Y.Pouillon, T.Rangel, G.-M.Rignanese,
- A.H.Romero, B.Rousseau, O.Rubel, A.A.Shukri, M.Stankovski, M.Torrent,
- M.J.Van Setten, B.Van Troeye, M.J.Verstraete, D.Waroquier, J.Wiktor,
- B.Xu, A.Zhou, J.W.Zwanziger.
- Comment: the fourth generic paper describing the ABINIT project.
- Note that a version of this paper, that is not formatted for Computer Phys. Comm. 
- is available at https://www.abinit.org/sites/default/files/ABINIT16.pdf .
- The licence allows the authors to put it on the Web.
- DOI and bibtex: see https://docs.abinit.org/theory/bibliography/#gonze2016
-
- And optionally:
-
- [5] ABINIT: First-principles approach of materials and nanosystem properties.
- Computer Phys. Comm. 180, 2582-2615 (2009).
- X. Gonze, B. Amadon, P.-M. Anglade, J.-M. Beuken, F. Bottin, P. Boulanger, F. Bruneval,
- D. Caliste, R. Caracas, M. Cote, T. Deutsch, L. Genovese, Ph. Ghosez, M. Giantomassi
- S. Goedecker, D.R. Hamann, P. Hermet, F. Jollet, G. Jomard, S. Leroux, M. Mancini, S. Mazevet,
- M.J.T. Oliveira, G. Onida, Y. Pouillon, T. Rangel, G.-M. Rignanese, D. Sangalli, R. Shaltaf,
- M. Torrent, M.J. Verstraete, G. Zerah, J.W. Zwanziger
- Comment: the third generic paper describing the ABINIT project.
- Note that a version of this paper, that is not formatted for Computer Phys. Comm. 
- is available at https://www.abinit.org/sites/default/files/ABINIT_CPC_v10.pdf .
- The licence allows the authors to put it on the Web.
- DOI and bibtex: see https://docs.abinit.org/theory/bibliography/#gonze2009
 Proc.   0 individual time (sec): cpu=       9449.8  wall=       9532.3
 
 Calculation completed.
.Delivered   0 WARNINGs and   2 COMMENTs to log file.

--- !FinalSummary
program: abinit
version: 9.7.2
start_datetime: Tue Mar 01 03:44:48 2022
end_datetime: Tue Mar 01 06:23:41 2022
overall_cpu_time:      906983.3
overall_wall_time:      915081.5
exit_requested_by_user: no 
timelimit: 0
pseudos: 
    C   : c654b01b9d50d97c5308503e02772833
    F   : 5bd02824304ebaccac957f285162e15e
usepaw: 0
mpi_procs: 96
omp_threads: 1
num_warnings: 0
num_comments: 2
...
