
.Version 9.7.2 of ABINIT 
.(MPI version, prepared for a x86_64_linux_gnu10.3 computer) 

.Copyright (C) 1998-2021 ABINIT group . 
 ABINIT comes with ABSOLUTELY NO WARRANTY.
 It is free software, and you are welcome to redistribute it
 under certain conditions (GNU General Public License,
 see ~abinit/COPYING or http://www.gnu.org/copyleft/gpl.txt).

 ABINIT is a project of the Universite Catholique de Louvain,
 Corning Inc. and other collaborators, see ~abinit/doc/developers/contributors.txt .
 Please read https://docs.abinit.org/theory/acknowledgments for suggested
 acknowledgments of the ABINIT effort.
 For more information, see https://www.abinit.org .

.Starting date : Tue 22 Mar 2022.
- ( at 17h46 )
  
- input  file    -> ./5H-2110_gw.abi
- output file    -> 5H-2110_gw.abo
- root for input  files -> 5H-2110_gw_i
- root for output files -> 5H-2110_gw_o

 mkfilename : getden/=0, take file _DEN from output of DATASET   1.


 DATASET    2 : space group Pb c m (# 57); Bravais oP (primitive ortho.)
================================================================================
 Values of the parameters that define the memory need for DATASET  2.
     intxc =       0    ionmov =       0      iscf =      -2    lmnmax =       1
     lnmax =       1     mgfft =     576  mpssoang =       2    mqgrid =   28272
     natom =      48  nloc_mem =       1    nspden =       1   nspinor =       1
    nsppol =       1      nsym =       8    n1xccc =       0    ntypat =       2
    occopt =       1   xclevel =       2
-    mband =        2568        mffmem =           1         mkmem =           3
       mpw =        1408          nfft =       93312          nkpt =          16
================================================================================
P This job should need less than                     444.273 Mbytes of memory.
  Rough estimation (10% accuracy) of disk space for files :
_ WF disk file :  15889.502 Mbytes ; DEN or POT disk file :      0.714 Mbytes.
================================================================================

--------------------------------------------------------------------------------
------------- Echo of variables that govern the present computation ------------
--------------------------------------------------------------------------------
-
- outvars: echo of selected default values                                      
-   iomode0 =  0 , fftalg0 =312 , wfoptalg0 =  0
-
- outvars: echo of global parameters not present in the input file              
-  max_nthreads =    0
-
 -outvars: echo values of preprocessed input variables --------
-          iomode           1
            acell      7.9423772092E+00  8.2625279720E+00  8.8817128246E+01 Bohr
              amu      1.20110000E+01  1.00794000E+00
        autoparal           1
           bandpp         214
          chkprim           0
     densfor_pred           6
           diemac      1.20000000E+01
             ecut      5.00000000E+01 Hartree
-          fftalg         312
           getden           1
      gw_icutcoul           2
             iscf          -2
           istwfk        1    0    0    1    0    0    0    0    0    0
                         0    0    1    0    0    1
              ixc     -208012
           jdtset        2
              kpt      0.00000000E+00  0.00000000E+00  0.00000000E+00
                       1.66666667E-01  0.00000000E+00  0.00000000E+00
                       3.33333333E-01  0.00000000E+00  0.00000000E+00
                       5.00000000E-01  0.00000000E+00  0.00000000E+00
                       0.00000000E+00  1.66666667E-01  0.00000000E+00
                       1.66666667E-01  1.66666667E-01  0.00000000E+00
                       3.33333333E-01  1.66666667E-01  0.00000000E+00
                       5.00000000E-01  1.66666667E-01  0.00000000E+00
                       0.00000000E+00  3.33333333E-01  0.00000000E+00
                       1.66666667E-01  3.33333333E-01  0.00000000E+00
                       3.33333333E-01  3.33333333E-01  0.00000000E+00
                       5.00000000E-01  3.33333333E-01  0.00000000E+00
                       0.00000000E+00  5.00000000E-01  0.00000000E+00
                       1.66666667E-01  5.00000000E-01  0.00000000E+00
                       3.33333333E-01  5.00000000E-01  0.00000000E+00
                       5.00000000E-01  5.00000000E-01  0.00000000E+00
         kptrlatt        6    0    0      0    6    0      0    0    1
          kptrlen      4.76542633E+01
P           mkmem           3
            natom          48
            nband        2568
           nbdbuf         321
           ndtset           1
            ngfft          54      54     576
             nkpt          16
-          npband           4
-           npfft          18
-        np_spkpt           7
            nstep         100
             nsym           8
           ntypat           2
           ortalg          -2
        paral_kgb           1
          prtkden           1
          spgroup          57
           symrel      1  0  0   0  1  0   0  0  1      -1  0  0   0 -1  0   0  0 -1
                      -1  0  0   0  1  0   0  0 -1       1  0  0   0 -1  0   0  0  1
                      -1  0  0   0 -1  0   0  0  1       1  0  0   0  1  0   0  0 -1
                       1  0  0   0 -1  0   0  0 -1      -1  0  0   0  1  0   0  0  1
            tnons      0.0000000  0.0000000  0.0000000    -0.0000000 -0.0000000  0.0000000
                       0.5000000  0.5000000  0.0000000     0.5000000  0.5000000  0.0000000
                      -0.0000000  0.5000000  0.0000000     0.0000000  0.5000000  0.0000000
                       0.5000000 -0.0000000  0.0000000     0.5000000  0.0000000  0.0000000
           tolsym      1.00000000E-04
           tolwfr      1.00000000E-18
            typat      1  1  1  1  1  1  1  1  1  1  1  1  1  1  1  1  1  1  1  1
                       1  1  1  1  1  1  1  1  1  1  1  1  1  1  1  1  1  1  1  1
                       2  2  2  2  2  2  2  2
          usekden           1
          vcutgeo      1.0000000  1.0000000  0.0000000
         wfoptalg         114
              wtk        0.02778    0.05556    0.05556    0.02778    0.05556    0.11111
                         0.11111    0.05556    0.05556    0.11111    0.11111    0.05556
                         0.02778    0.05556    0.05556    0.02778
           xangst      1.8216081831E+00  1.8019249212E+00  1.7875794547E+01
                       2.3813168180E+00  2.5704165669E+00  2.9124205453E+01
                       3.9230706837E+00  2.5704165669E+00  2.9124205453E+01
                       2.7985431742E-01  1.8019249212E+00  1.7875794547E+01
                       2.7985431742E-01  3.9880956653E+00  2.9124205453E+01
                       3.9230706837E+00  3.8424582280E-01  1.7875794547E+01
                       2.3813168180E+00  3.8424582280E-01  1.7875794547E+01
                       1.8216081831E+00  3.9880956653E+00  2.9124205453E+01
                       1.8385707832E+00  1.8227363262E+00  2.0360491890E+01
                       2.3643542180E+00  2.5496051620E+00  2.6639508110E+01
                       3.9400332837E+00  2.5496051620E+00  2.6639508110E+01
                       2.6289171740E-01  1.8227363262E+00  2.0360491890E+01
                       2.6289171740E-01  4.0089070702E+00  2.6639508110E+01
                       3.9400332837E+00  3.6343441790E-01  2.0360491890E+01
                       2.3643542180E+00  3.6343441790E-01  2.0360491890E+01
                       1.8385707832E+00  4.0089070702E+00  2.6639508110E+01
                       1.8379122792E+00  1.8215995655E+00  2.2872056793E+01
                       2.3650127219E+00  2.5507419226E+00  2.4127943207E+01
                       3.9393747798E+00  2.5507419226E+00  2.4127943207E+01
                       2.6355022135E-01  1.8215995655E+00  2.2872056793E+01
                       2.6355022135E-01  4.0077703096E+00  2.4127943207E+01
                       3.9393747798E+00  3.6457117855E-01  2.2872056793E+01
                       2.3650127219E+00  3.6457117855E-01  2.2872056793E+01
                       1.8379122792E+00  4.0077703096E+00  2.4127943207E+01
                       1.8378654249E+00  1.8215979835E+00  2.5383749760E+01
                       2.3650595763E+00  2.5507435046E+00  2.1616250240E+01
                       3.9393279254E+00  2.5507435046E+00  2.1616250240E+01
                       2.6359707569E-01  1.8215979835E+00  2.5383749760E+01
                       2.6359707569E-01  4.0077687276E+00  2.1616250240E+01
                       3.9393279254E+00  3.6457276051E-01  2.5383749760E+01
                       2.3650595763E+00  3.6457276051E-01  2.5383749760E+01
                       1.8378654249E+00  4.0077687276E+00  2.1616250240E+01
                       1.8372184378E+00  1.8186815473E+00  2.7898834038E+01
                       2.3657065633E+00  2.5536599408E+00  1.9101165962E+01
                       3.9386809384E+00  2.5536599408E+00  1.9101165962E+01
                       2.6424406273E-01  1.8186815473E+00  2.7898834038E+01
                       2.6424406273E-01  4.0048522914E+00  1.9101165962E+01
                       3.9386809384E+00  3.6748919671E-01  2.7898834038E+01
                       2.3657065633E+00  3.6748919671E-01  2.7898834038E+01
                       1.8372184378E+00  4.0048522914E+00  1.9101165962E+01
                       2.1602651089E+00  2.3011660692E+00  1.6960737322E+01
                       2.0426598923E+00  2.0711754189E+00  3.0039262678E+01
                       5.8802608284E-02  2.0711754189E+00  3.0039262678E+01
                       4.1441223928E+00  2.3011660692E+00  1.6960737322E+01
                       4.1441223928E+00  1.1499532513E-01  3.0039262678E+01
                       5.8802608284E-02  4.2573461630E+00  1.6960737322E+01
                       2.0426598923E+00  4.2573461630E+00  1.6960737322E+01
                       2.1602651089E+00  1.1499532513E-01  3.0039262678E+01
            xcart      3.4423405876E+00  3.4051446132E+00  3.3780356102E+01
                       4.5000366216E+00  4.8573833588E+00  5.5036772144E+01
                       7.4135291922E+00  4.8573833588E+00  5.5036772144E+01
                       5.2884801703E-01  3.4051446132E+00  3.3780356102E+01
                       5.2884801703E-01  7.5364085992E+00  5.5036772144E+01
                       7.4135291922E+00  7.2611937280E-01  3.3780356102E+01
                       4.5000366216E+00  7.2611937280E-01  3.3780356102E+01
                       3.4423405876E+00  7.5364085992E+00  5.5036772144E+01
                       3.4743952561E+00  3.4444724689E+00  3.8475753603E+01
                       4.4679819531E+00  4.8180555031E+00  5.0341374643E+01
                       7.4455838607E+00  4.8180555031E+00  5.0341374643E+01
                       4.9679334849E-01  3.4444724689E+00  3.8475753603E+01
                       4.9679334849E-01  7.5757364549E+00  5.0341374643E+01
                       7.4455838607E+00  6.8679151709E-01  3.8475753603E+01
                       4.4679819531E+00  6.8679151709E-01  3.8475753603E+01
                       3.4743952561E+00  7.5757364549E+00  5.0341374643E+01
                       3.4731508640E+00  3.4423243026E+00  4.3221923434E+01
                       4.4692263452E+00  4.8202036694E+00  4.5595204812E+01
                       7.4443394686E+00  4.8202036694E+00  4.5595204812E+01
                       4.9803774062E-01  3.4423243026E+00  4.3221923434E+01
                       4.9803774062E-01  7.5735882886E+00  4.5595204812E+01
                       7.4443394686E+00  6.8893968340E-01  4.3221923434E+01
                       4.4692263452E+00  6.8893968340E-01  4.3221923434E+01
                       3.4731508640E+00  7.5735882886E+00  4.5595204812E+01
                       3.4730623221E+00  3.4423213131E+00  4.7968335272E+01
                       4.4693148871E+00  4.8202066589E+00  4.0848792974E+01
                       7.4442509267E+00  4.8202066589E+00  4.0848792974E+01
                       4.9812628248E-01  3.4423213131E+00  4.7968335272E+01
                       4.9812628248E-01  7.5735852991E+00  4.0848792974E+01
                       7.4442509267E+00  6.8894267287E-01  4.7968335272E+01
                       4.4693148871E+00  6.8894267287E-01  4.7968335272E+01
                       3.4730623221E+00  7.5735852991E+00  4.0848792974E+01
                       3.4718396938E+00  3.4368100474E+00  5.2721155759E+01
                       4.4705375154E+00  4.8257179246E+00  3.6095972487E+01
                       7.4430282984E+00  4.8257179246E+00  3.6095972487E+01
                       4.9934891081E-01  3.4368100474E+00  5.2721155759E+01
                       4.9934891081E-01  7.5680740334E+00  3.6095972487E+01
                       7.4430282984E+00  6.9445393857E-01  5.2721155759E+01
                       4.4705375154E+00  6.9445393857E-01  5.2721155759E+01
                       3.4718396938E+00  7.5680740334E+00  3.6095972487E+01
                       4.0823094302E+00  4.3485736570E+00  3.2051148550E+01
                       3.8600677790E+00  3.9139543149E+00  5.6765979696E+01
                       1.1112082556E-01  3.9139543149E+00  5.6765979696E+01
                       7.8312563836E+00  4.3485736570E+00  3.2051148550E+01
                       7.8312563836E+00  2.1730967105E-01  5.6765979696E+01
                       1.1112082556E-01  8.0452183009E+00  3.2051148550E+01
                       3.8600677790E+00  8.0452183009E+00  3.2051148550E+01
                       4.0823094302E+00  2.1730967105E-01  5.6765979696E+01
             xred      4.3341439180E-01  4.1211898159E-01  3.8033605420E-01
                       5.6658560820E-01  5.8788101841E-01  6.1966394580E-01
                       9.3341439180E-01  5.8788101841E-01  6.1966394580E-01
                       6.6585608200E-02  4.1211898159E-01  3.8033605420E-01
                       6.6585608200E-02  9.1211898159E-01  6.1966394580E-01
                       9.3341439180E-01  8.7881018408E-02  3.8033605420E-01
                       5.6658560820E-01  8.7881018408E-02  3.8033605420E-01
                       4.3341439180E-01  9.1211898159E-01  6.1966394580E-01
                       4.3745029537E-01  4.1687876647E-01  4.3320195510E-01
                       5.6254970463E-01  5.8312123353E-01  5.6679804490E-01
                       9.3745029537E-01  5.8312123353E-01  5.6679804490E-01
                       6.2549704629E-02  4.1687876647E-01  4.3320195510E-01
                       6.2549704629E-02  9.1687876647E-01  5.6679804490E-01
                       9.3745029537E-01  8.3121233528E-02  4.3320195510E-01
                       5.6254970463E-01  8.3121233528E-02  4.3320195510E-01
                       4.3745029537E-01  9.1687876647E-01  5.6679804490E-01
                       4.3729361783E-01  4.1661877748E-01  4.8663950623E-01
                       5.6270638217E-01  5.8338122252E-01  5.1336049377E-01
                       9.3729361783E-01  5.8338122252E-01  5.1336049377E-01
                       6.2706382170E-02  4.1661877748E-01  4.8663950623E-01
                       6.2706382170E-02  9.1661877748E-01  5.1336049377E-01
                       9.3729361783E-01  8.3381222519E-02  4.8663950623E-01
                       5.6270638217E-01  8.3381222519E-02  4.8663950623E-01
                       4.3729361783E-01  9.1661877748E-01  5.1336049377E-01
                       4.3728246980E-01  4.1661841567E-01  5.4007978212E-01
                       5.6271753020E-01  5.8338158433E-01  4.5992021788E-01
                       9.3728246980E-01  5.8338158433E-01  4.5992021788E-01
                       6.2717530200E-02  4.1661841567E-01  5.4007978212E-01
                       6.2717530200E-02  9.1661841567E-01  4.5992021788E-01
                       9.3728246980E-01  8.3381584329E-02  5.4007978212E-01
                       5.6271753020E-01  8.3381584329E-02  5.4007978212E-01
                       4.3728246980E-01  9.1661841567E-01  4.5992021788E-01
                       4.3712853247E-01  4.1595139636E-01  5.9359221358E-01
                       5.6287146753E-01  5.8404860364E-01  4.0640778642E-01
                       9.3712853247E-01  5.8404860364E-01  4.0640778642E-01
                       6.2871467529E-02  4.1595139636E-01  5.9359221358E-01
                       6.2871467529E-02  9.1595139636E-01  4.0640778642E-01
                       9.3712853247E-01  8.4048603639E-02  5.9359221358E-01
                       5.6287146753E-01  8.4048603639E-02  5.9359221358E-01
                       4.3712853247E-01  9.1595139636E-01  4.0640778642E-01
                       5.1399087737E-01  5.2630062758E-01  3.6086675153E-01
                       4.8600912263E-01  4.7369937242E-01  6.3913324847E-01
                       1.3990877369E-02  4.7369937242E-01  6.3913324847E-01
                       9.8600912263E-01  5.2630062758E-01  3.6086675153E-01
                       9.8600912263E-01  2.6300627578E-02  6.3913324847E-01
                       1.3990877369E-02  9.7369937242E-01  3.6086675153E-01
                       4.8600912263E-01  9.7369937242E-01  3.6086675153E-01
                       5.1399087737E-01  2.6300627578E-02  6.3913324847E-01
            znucl        6.00000    1.00000

================================================================================

 chkinp: Checking input parameters for consistency, jdtset=   2.

================================================================================
== DATASET  2 ==================================================================
-   mpi_nproc: 504, omp_nthreads: -1 (-1 if OMP is not activated)


--- !DatasetInfo
iteration_state: {dtset: 2, }
dimensions: {natom: 48, nkpt: 16, mband: 2568, nsppol: 1, nspinor: 1, nspden: 1, mpw: 1408, }
cutoff_energies: {ecut:  50.0, pawecutdg:  -1.0, }
electrons: {nelect:   1.68000000E+02, charge:   0.00000000E+00, occopt:   1.00000000E+00, tsmear:   1.00000000E-02, }
meta: {optdriver: 0, ionmov: 0, optcell: 0, iscf: -2, paral_kgb: 1, }
...

 mkfilename : getden/=0, take file _DEN from output of DATASET   1.

 mkfilename : getkden/=0, take file _KDEN from output of DATASET   1.

 Real(R)+Recip(G) space primitive vectors, cartesian coordinates (Bohr,Bohr^-1):
 R(1)=  7.9423772  0.0000000  0.0000000  G(1)=  0.1259069  0.0000000  0.0000000
 R(2)=  0.0000000  8.2625280  0.0000000  G(2)=  0.0000000  0.1210283  0.0000000
 R(3)=  0.0000000  0.0000000 88.8171282  G(3)=  0.0000000  0.0000000  0.0112591
 Unit cell volume ucvol=  5.8285453E+03 bohr^3
 Angles (23,13,12)=  9.00000000E+01  9.00000000E+01  9.00000000E+01 degrees

 getcut: wavevector=  0.0000  0.0000  0.0000  ngfft=  54  54 576
         ecut(hartree)=     50.000   => boxcut(ratio)=   2.03740

--- Pseudopotential description ------------------------------------------------
- pspini: atom type   1  psp file is ../6c.4.hgh
- pspatm: opening atomic psp file    ../6c.4.hgh
- Hartwigsen-Goedecker-Hutter psp for C,  from PRB58, 3641 (1998)
-  6.00000   4.00000     10605                znucl, zion, pspdat
    3    1    1    0      2001   0.00000      pspcod,pspxc,lmax,lloc,mmax,r2well
 rloc=   0.3488300
 cc1 =  -8.5137710; cc2 =   1.2284320; cc3 =   0.0000000; cc4 =   0.0000000
 rrs =   0.3045530; h11s=   9.5228420; h22s=   0.0000000; h33s=   0.0000000
 rrp =   0.2326770; h11p=   0.0000000; h22p=   0.0000000; h33p=   0.0000000
                    k11p=   0.0041040; k22p=   0.0000000; k33p=   0.0000000
-  Local part computed in reciprocal space.

 pspatm : COMMENT -
  the projectors are not normalized,
  so that the KB energies are not consistent with 
  definition in PRB44, 8503 (1991). 
  However, this does not influence the results obtained hereafter.
  pspatm : epsatm=   -0.16969744
         --- l  ekb(1:nproj) -->
             0    0.953587
 pspatm: atomic psp has been read  and splines computed

- pspini: atom type   2  psp file is ../1h.1.hgh
- pspatm: opening atomic psp file    ../1h.1.hgh
- Hartwigsen-Goedecker-Hutter psp for H,  from PRB58, 3641 (1998)
-  1.00000   1.00000     10605                znucl, zion, pspdat
    3    1    0    0      2001   0.00000      pspcod,pspxc,lmax,lloc,mmax,r2well
 rloc=   0.2000000
 cc1 =  -4.1802370; cc2 =   0.7250750; cc3 =   0.0000000; cc4 =   0.0000000
 rrs =   0.0000000; h11s=   0.0000000; h22s=   0.0000000; h33s=   0.0000000
-  Local part computed in reciprocal space.

 pspatm : COMMENT -
  the projectors are not normalized,
  so that the KB energies are not consistent with 
  definition in PRB44, 8503 (1991). 
  However, this does not influence the results obtained hereafter.
  pspatm : epsatm=   -0.00129784
         --- l  ekb(1:nproj) -->
 pspatm: atomic psp has been read  and splines computed

--------------------------------------------------------------------------------


================================================================================
 prteigrs : about to open file 5H-2110_gw_o_DS2_EIG
 Non-SCF case, kpt    1 (  0.00000  0.00000  0.00000), residuals and eigenvalues=
  2.29E-29  2.84E-29  1.78E-29  1.97E-29  1.85E-29  1.70E-29  2.38E-29  2.45E-29
  3.00E-29  1.95E-29  1.72E-29  2.35E-29  2.46E-29  3.03E-29  2.77E-29  1.68E-29
  2.31E-29  2.56E-29  1.82E-29  1.56E-29  2.48E-29  2.28E-29  3.62E-29  2.17E-29
  2.28E-29  2.08E-29  2.99E-29  1.91E-29  2.36E-29  1.78E-29  1.70E-29  2.26E-29
  1.68E-29  1.66E-29  1.54E-29  1.71E-29  2.12E-29  2.84E-29  1.83E-29  1.76E-29
  1.56E-29  1.75E-29  3.23E-29  1.73E-29  1.42E-29  1.88E-29  1.54E-29  1.89E-29
  1.80E-29  1.78E-29  1.85E-29  1.53E-29  2.16E-29  1.39E-29  1.61E-29  1.51E-29
  1.79E-29  1.34E-29  1.59E-29  1.57E-29  1.86E-29  1.56E-29  3.31E-29  3.07E-29
  2.91E-29  1.93E-29  1.63E-29  2.48E-29  2.42E-29  1.85E-29  3.00E-29  1.28E-29
  1.34E-29  2.33E-29  1.96E-29  1.93E-29  2.05E-29  2.39E-29  1.84E-29  2.53E-29
  1.94E-29  1.87E-29  1.59E-29  1.95E-29  1.99E-29  2.08E-29  2.35E-29  1.51E-29
  1.46E-29  2.02E-29  1.80E-29  1.68E-29  1.76E-29  1.33E-29  1.49E-29  1.29E-29
  2.19E-29  1.31E-29  2.22E-29  1.43E-29  1.45E-29  1.26E-29  1.29E-29  1.68E-29
  1.27E-29  1.76E-29  1.19E-29  1.29E-29  1.20E-29  1.48E-29  1.44E-29  1.20E-29
  1.41E-29  1.30E-29  1.14E-29  1.43E-29  1.11E-29  1.47E-29  1.31E-29  1.19E-29
  1.13E-29  1.35E-29  1.39E-29  1.10E-29  1.10E-29  1.41E-29  1.13E-29  1.33E-29
  1.26E-29  1.05E-29  1.60E-29  2.06E-29  1.54E-29  1.49E-29  1.55E-29  1.11E-29
  1.29E-29  1.74E-29  1.64E-29  1.69E-29  1.62E-29  1.20E-29  1.50E-29  1.59E-29
  1.38E-29  1.16E-29  1.40E-29  1.42E-29  1.35E-29  1.32E-29  1.57E-29  1.64E-29
  1.05E-29  9.07E-30  1.47E-29  1.27E-29  1.36E-29  1.97E-29  1.29E-29  1.45E-29
  1.57E-29  1.16E-29  1.39E-29  1.06E-29  1.25E-29  7.60E-30  9.27E-30  1.04E-29
  7.75E-30  8.54E-30  1.16E-29  1.03E-29  9.28E-30  1.17E-29  8.43E-30  8.37E-30
  1.39E-29  1.02E-29  1.19E-29  1.03E-29  9.98E-30  9.77E-30  7.43E-30  1.17E-29
  8.08E-30  9.77E-30  9.95E-30  8.52E-30  9.57E-30  8.86E-30  7.97E-30  6.09E-30
  8.75E-30  1.01E-29  9.83E-30  8.97E-30  1.23E-29  1.09E-29  7.57E-30  5.42E-30
  7.50E-30  1.15E-29  7.76E-30  8.34E-30  9.32E-30  8.73E-30  7.50E-30  5.96E-30
  9.56E-30  9.03E-30  5.99E-30  4.73E-30  8.27E-30  7.48E-30  7.88E-30  7.96E-30
  9.84E-30  8.23E-30  1.04E-29  7.10E-30  7.04E-30  7.59E-30  6.70E-30  5.08E-30
  7.27E-30  7.49E-30  9.42E-30  7.08E-30  6.74E-30  6.60E-30  8.43E-30  6.24E-30
  8.65E-30  3.94E-30  6.08E-30  8.39E-30  8.05E-30  8.32E-30  6.94E-30  5.22E-30
  3.75E-30  5.73E-30  5.57E-30  6.44E-30  4.82E-30  5.04E-30  5.78E-30  4.65E-30
  6.82E-30  4.77E-30  4.96E-30  4.15E-30  6.33E-30  6.39E-30  5.71E-30  6.34E-30
  7.63E-30  1.03E-29  6.07E-30  4.88E-30  4.95E-30  4.87E-30  6.43E-30  5.49E-30
  6.07E-30  4.33E-30  4.72E-30  8.80E-30  8.82E-30  6.81E-30  7.29E-30  8.21E-30
  5.24E-30  7.18E-30  5.68E-30  7.13E-30  5.23E-30  6.70E-30  5.04E-30  5.98E-30
  8.22E-30  7.16E-30  6.44E-30  7.14E-30  7.07E-30  8.84E-30  6.84E-30  7.19E-30
  3.30E-30  9.67E-30  7.64E-30  1.21E-29  7.30E-30  4.57E-30  7.26E-30  7.10E-30
  5.63E-30  8.82E-30  7.12E-30  8.33E-30  6.83E-30  9.71E-30  6.01E-30  7.84E-30
  6.99E-30  6.34E-30  6.67E-30  6.72E-30  6.99E-30  5.95E-30  7.34E-30  9.98E-30
  6.16E-30  4.26E-30  9.45E-30  6.75E-30  5.08E-30  6.65E-30  5.31E-30  7.07E-30
  8.11E-30  9.28E-30  5.74E-30  6.55E-30  5.57E-30  6.97E-30  5.44E-30  3.66E-30
  6.45E-30  6.14E-30  5.88E-30  4.78E-30  6.90E-30  9.90E-30  5.51E-30  5.35E-30
  6.92E-30  3.33E-30  5.72E-30  5.85E-30  5.80E-30  4.34E-30  5.37E-30  5.20E-30
  5.20E-30  7.48E-30  5.55E-30  3.21E-30  4.17E-30  5.88E-30  5.07E-30  6.28E-30
  5.85E-30  6.52E-30  1.00E-29  1.24E-29  8.46E-30  5.76E-30  6.20E-30  4.24E-30
  6.51E-30  7.01E-30  6.48E-30  6.30E-30  4.14E-30  3.56E-30  7.53E-30  6.64E-30
  6.02E-30  4.86E-30  3.30E-30  3.52E-30  7.53E-30  4.63E-30  6.82E-30  5.91E-30
  4.61E-30  6.84E-30  4.74E-30  4.35E-30  4.47E-30  5.19E-30  4.36E-30  5.89E-30
  7.18E-30  5.60E-30  6.04E-30  7.59E-30  6.48E-30  6.61E-30  6.51E-30  6.94E-30
  6.04E-30  4.09E-30  5.89E-30  8.20E-30  4.32E-30  5.15E-30  6.94E-30  1.09E-29
  6.21E-30  5.86E-30  2.31E-30  8.01E-30  5.85E-30  6.82E-30  5.43E-30  4.50E-30
  4.19E-30  6.03E-30  6.35E-30  4.72E-30  6.64E-30  5.63E-30  4.67E-30  5.68E-30
  5.15E-30  5.23E-30  6.72E-30  3.64E-30  4.59E-30  4.41E-30  6.36E-30  5.21E-30
  4.54E-30  5.31E-30  4.79E-30  5.75E-30  4.88E-30  4.20E-30  6.73E-30  5.95E-30
  7.32E-30  2.74E-30  6.85E-30  6.92E-30  4.90E-30  5.87E-30  5.00E-30  8.71E-30
  5.27E-30  4.14E-30  3.91E-30  3.52E-30  6.05E-30  5.12E-30  4.80E-30  4.34E-30
  7.63E-30  7.88E-30  7.05E-30  7.24E-30  5.75E-30  5.12E-30  3.33E-30  5.06E-30
  3.31E-30  4.74E-30  3.62E-30  4.05E-30  6.21E-30  3.11E-30  3.50E-30  6.56E-30
  4.77E-30  5.39E-30  2.99E-30  6.22E-30  5.57E-30  5.61E-30  3.26E-30  5.03E-30
  4.98E-30  3.63E-30  4.48E-30  4.81E-30  3.98E-30  4.59E-30  6.38E-30  4.96E-30
  6.48E-30  3.30E-30  5.10E-30  4.91E-30  4.62E-30  3.57E-30  3.20E-30  3.91E-30
  5.35E-30  3.42E-30  5.38E-30  5.22E-30  5.31E-30  4.11E-30  5.54E-30  3.55E-30
  3.64E-30  5.70E-30  6.39E-30  4.08E-30  3.94E-30  2.69E-30  5.31E-30  5.27E-30
  6.43E-30  7.00E-30  4.57E-30  3.58E-30  5.18E-30  4.99E-30  4.42E-30  5.85E-30
  4.80E-30  4.76E-30  4.65E-30  6.01E-30  4.34E-30  3.23E-30  7.42E-30  4.33E-30
  4.29E-30  6.10E-30  3.07E-30  5.99E-30  3.73E-30  5.03E-30  3.32E-30  4.78E-30
  4.30E-30  3.02E-30  3.55E-30  5.35E-30  5.44E-30  3.67E-30  3.34E-30  4.05E-30
  4.39E-30  4.07E-30  1.13E-29  3.61E-30  4.57E-30  4.86E-30  2.71E-30  3.53E-30
  2.83E-30  3.35E-30  5.48E-30  4.92E-30  3.56E-30  5.37E-30  3.74E-30  4.64E-30
  3.88E-30  5.40E-30  3.38E-30  4.15E-30  3.44E-30  3.55E-30  3.40E-30  5.12E-30
  3.52E-30  2.73E-30  4.57E-30  5.45E-30  3.00E-30  4.54E-30  2.88E-30  3.47E-30
  3.08E-30  4.45E-30  3.68E-30  7.74E-30  2.79E-30  1.12E-29  4.25E-30  4.90E-30
  4.05E-30  5.49E-30  3.05E-30  3.34E-30  3.65E-30  6.78E-30  6.01E-30  3.50E-30
  6.09E-30  3.40E-30  4.80E-30  3.02E-30  3.42E-30  3.03E-30  4.06E-30  3.12E-30
  5.05E-30  3.14E-30  5.86E-30  3.33E-30  3.91E-30  5.47E-30  2.95E-30  7.78E-30
  3.01E-30  3.00E-30  3.93E-30  4.07E-30  4.63E-30  3.47E-30  5.13E-30  2.90E-30
  3.74E-30  4.91E-30  5.11E-30  2.54E-30  4.58E-30  3.21E-30  5.07E-30  2.85E-30
  5.63E-30  5.02E-30  3.37E-30  3.02E-30  3.32E-30  5.39E-30  2.40E-30  2.59E-30
  4.12E-30  2.71E-30  3.68E-30  4.36E-30  2.92E-30  3.94E-30  5.44E-30  2.84E-30
  4.33E-30  3.49E-30  3.32E-30  2.68E-30  3.87E-30  3.05E-30  3.23E-30  2.88E-30
  2.54E-30  3.42E-30  5.00E-30  3.75E-30  3.93E-30  5.20E-30  3.44E-30  5.11E-30
  3.19E-30  3.95E-30  3.11E-30  4.20E-30  5.27E-30  2.87E-30  4.95E-30  5.49E-30
  5.32E-30  2.66E-30  2.93E-30  4.74E-30  4.54E-30  2.78E-30  4.13E-30  4.50E-30
  3.72E-30  2.77E-30  2.96E-30  3.70E-30  3.44E-30  4.86E-30  5.00E-30  5.92E-30
  3.55E-30  3.96E-30  4.30E-30  3.65E-30  4.06E-30  6.80E-30  2.98E-30  3.46E-30
  4.57E-30  4.12E-30  3.36E-30  2.29E-30  2.84E-30  5.90E-30  2.73E-30  4.69E-30
  2.40E-30  5.57E-30  3.07E-30  3.51E-30  3.42E-30  4.69E-30  4.86E-30  3.10E-30
  3.77E-30  2.68E-30  5.98E-30  2.61E-30  3.84E-30  3.08E-30  2.88E-30  2.56E-30
  4.71E-30  3.50E-30  3.14E-30  3.06E-30  2.70E-30  4.20E-30  3.71E-30  4.96E-30
  3.36E-30  6.22E-30  2.70E-30  4.46E-30  2.98E-30  4.79E-30  6.00E-30  2.65E-30
  5.03E-30  4.86E-30  3.41E-30  2.58E-30  2.82E-30  3.80E-30  2.35E-30  3.38E-30
  2.41E-30  3.41E-30  3.92E-30  3.36E-30  2.18E-30  3.21E-30  3.12E-30  5.25E-30
  2.96E-30  5.22E-30  2.90E-30  4.14E-30  2.25E-30  2.45E-30  2.60E-30  2.99E-30
  2.70E-30  2.73E-30  3.32E-30  4.39E-30  2.77E-30  2.18E-30  2.19E-30  2.97E-30
  4.46E-30  2.37E-30  4.03E-30  2.97E-30  2.77E-30  3.13E-30  2.55E-30  5.09E-30
  4.05E-30  3.80E-30  4.05E-30  5.26E-30  4.01E-30  4.11E-30  3.32E-30  2.74E-30
  3.91E-30  3.85E-30  3.23E-30  4.73E-30  2.43E-30  3.44E-30  2.65E-30  3.37E-30
  4.90E-30  5.26E-30  3.94E-30  4.13E-30  2.73E-30  4.10E-30  5.24E-30  4.34E-30
  4.39E-30  4.52E-30  2.50E-30  3.94E-30  2.60E-30  3.47E-30  4.13E-30  6.20E-30
  2.84E-30  4.86E-30  4.23E-30  2.22E-30  4.03E-30  4.63E-30  4.63E-30  4.96E-30
  4.52E-30  3.81E-30  5.23E-30  6.24E-30  4.12E-30  3.47E-30  2.80E-30  3.70E-30
  2.60E-30  2.38E-30  3.77E-30  2.48E-30  6.26E-30  3.31E-30  2.05E-30  4.15E-30
  2.66E-30  5.51E-30  2.93E-30  4.30E-30  4.60E-30  2.49E-30  3.16E-30  5.28E-30
  3.81E-30  2.56E-30  2.75E-30  2.55E-30  2.70E-30  2.62E-30  2.01E-30  4.27E-30
  4.82E-30  3.43E-30  6.44E-30  3.93E-30  4.13E-30  6.78E-30  2.22E-30  4.36E-30
  4.24E-30  5.39E-30  2.66E-30  4.63E-30  2.66E-30  4.77E-30  5.34E-30  3.49E-30
  5.06E-30  4.42E-30  5.45E-30  6.49E-30  5.24E-30  5.69E-30  6.18E-30  1.07E-29
  3.61E-30  4.99E-30  4.39E-30  3.64E-30  4.37E-30  4.19E-30  3.92E-30  3.10E-30
  3.22E-30  3.75E-30  3.46E-30  3.76E-30  3.07E-30  3.53E-30  3.88E-30  3.61E-30
  4.12E-30  2.48E-30  3.73E-30  3.31E-30  3.08E-30  3.31E-30  2.68E-30  3.24E-30
  3.91E-30  3.98E-30  2.88E-30  3.64E-30  4.30E-30  3.55E-30  2.75E-30  2.76E-30
  3.71E-30  3.40E-30  2.71E-30  4.29E-30  3.78E-30  3.27E-30  3.96E-30  7.91E-30
  2.99E-30  3.13E-30  2.18E-30  3.03E-30  3.56E-30  2.49E-30  3.85E-30  2.83E-30
  3.15E-30  4.94E-30  9.39E-30  3.72E-30  3.98E-30  3.23E-30  4.57E-30  3.30E-30
  4.39E-30  3.74E-30  3.13E-30  2.80E-30  2.80E-30  2.61E-30  2.67E-30  2.63E-30
  2.58E-30  3.13E-30  3.48E-30  9.56E-30  3.47E-30  2.30E-30  3.03E-30  3.27E-30
  3.44E-30  3.29E-30  3.98E-30  2.59E-30  2.60E-30  3.46E-30  2.96E-30  8.38E-30
  3.08E-30  3.75E-30  2.42E-30  2.04E-30  3.32E-30  4.24E-30  3.53E-30  3.45E-30
  2.57E-30  2.21E-30  3.27E-30  3.20E-30  3.23E-30  2.81E-30  2.73E-30  2.38E-30
  2.50E-30  2.24E-30  2.34E-30  2.98E-30  3.07E-30  3.41E-30  1.06E-29  4.35E-30
  3.49E-30  2.76E-30  2.24E-30  3.17E-30  2.11E-30  2.62E-30  3.76E-30  3.63E-30
  3.53E-30  3.02E-30  2.40E-30  3.06E-30  2.62E-30  3.01E-30  3.24E-30  3.14E-30
  1.96E-30  1.40E-30  2.24E-30  3.17E-30  2.87E-30  4.10E-30  8.91E-30  1.90E-30
  3.03E-30  2.83E-30  3.40E-30  3.11E-30  2.41E-30  1.04E-29  1.09E-29  3.35E-30
  7.51E-30  3.16E-30  8.99E-30  2.11E-30  3.29E-30  3.20E-30  3.27E-30  2.66E-30
  2.38E-30  2.94E-30  2.65E-30  2.66E-30  2.59E-30  2.08E-30  2.41E-30  8.43E-30
  7.85E-30  8.37E-30  4.59E-30  3.47E-30  2.63E-30  2.51E-30  9.42E-30  9.08E-30
  9.03E-30  8.54E-30  8.58E-30  2.48E-30  2.18E-30  2.53E-30  2.45E-30  2.54E-30
  2.01E-30  1.88E-30  2.93E-30  1.90E-30  2.45E-30  2.63E-30  1.43E-30  2.42E-30
  1.79E-30  1.85E-30  2.87E-30  3.17E-30  2.98E-30  3.08E-30  3.49E-30  9.16E-30
  3.84E-30  3.82E-30  3.21E-30  9.20E-30  4.17E-30  2.95E-30  4.03E-30  8.38E-30
  1.01E-29  4.01E-30  4.27E-30  4.05E-30  2.44E-30  2.67E-30  7.94E-30  1.83E-30
  2.60E-30  2.36E-30  2.39E-30  1.42E-30  2.04E-30  2.36E-30  3.57E-30  8.22E-30
  2.55E-30  2.71E-30  2.09E-30  2.38E-30  8.29E-30  8.23E-30  2.77E-30  1.82E-30
  3.00E-30  2.66E-30  7.98E-30  3.22E-30  3.03E-30  7.65E-30  4.00E-30  4.71E-30
  7.58E-30  2.57E-30  3.21E-30  1.89E-30  2.41E-30  8.16E-30  6.76E-30  8.39E-30
  3.49E-30  3.52E-30  3.31E-30  3.06E-30  2.82E-30  2.79E-30  3.47E-30  3.13E-30
  8.36E-30  1.99E-30  1.69E-30  2.12E-30  2.08E-30  7.85E-30  8.67E-30  7.81E-30
  6.76E-30  7.77E-30  4.18E-30  7.48E-30  3.75E-30  3.68E-30  7.66E-30  4.45E-30
  3.87E-30  2.86E-30  7.18E-30  2.43E-30  2.59E-30  2.79E-30  2.21E-30  3.14E-30
  1.97E-30  1.91E-30  2.62E-30  1.81E-30  2.44E-30  1.69E-30  2.42E-30  2.79E-30
  2.36E-30  8.47E-30  3.38E-30  3.97E-30  8.52E-30  8.25E-30  7.97E-30  2.86E-30
  1.90E-30  3.39E-30  8.91E-30  7.83E-30  3.58E-30  2.60E-30  2.97E-30  2.75E-30
  7.50E-30  8.11E-30  2.77E-30  3.45E-30  8.03E-30  3.27E-30  3.76E-30  2.47E-30
  3.34E-30  7.30E-30  2.15E-30  6.41E-30  1.80E-30  1.42E-30  2.51E-30  7.89E-30
  7.61E-30  8.65E-30  7.97E-30  3.31E-30  3.35E-30  8.53E-30  2.44E-30  2.73E-30
  7.44E-30  2.68E-30  3.09E-30  1.60E-30  1.94E-30  7.78E-30  8.47E-30  7.38E-30
  7.60E-30  3.29E-30  2.10E-30  7.65E-30  2.48E-30  2.20E-30  2.87E-30  2.47E-30
  8.62E-30  2.98E-30  2.92E-30  2.53E-30  2.97E-30  3.90E-30  1.63E-30  1.72E-30
  1.17E-30  1.69E-30  3.14E-30  3.68E-30  2.68E-30  2.34E-30  1.59E-30  1.62E-30
  2.39E-30  2.48E-30  1.90E-30  2.15E-30  2.15E-30  4.04E-30  2.06E-30  5.92E-30
  8.07E-30  6.08E-30  1.89E-30  2.20E-30  1.79E-30  2.60E-30  7.49E-30  7.80E-30
  2.86E-30  3.85E-30  3.35E-30  2.31E-30  5.98E-30  2.77E-30  4.08E-30  2.74E-30
  2.75E-30  1.91E-30  1.98E-30  2.78E-30  3.49E-30  2.08E-30  1.65E-30  3.15E-30
  3.18E-30  2.10E-30  2.17E-30  5.93E-30  2.98E-30  7.45E-30  6.09E-30  6.80E-30
  2.16E-30  2.19E-30  2.38E-30  2.41E-30  2.88E-30  2.31E-30  7.26E-30  1.78E-30
  1.87E-30  1.93E-30  1.87E-30  2.00E-30  1.85E-30  2.30E-30  2.14E-30  6.79E-30
  3.06E-30  2.69E-30  1.56E-30  3.51E-30  3.55E-30  2.76E-30  1.65E-30  2.49E-30
  2.74E-30  2.40E-30  8.77E-30  7.40E-30  3.19E-30  1.22E-30  2.48E-30  3.20E-30
  2.21E-30  1.75E-30  2.42E-30  2.04E-30  2.39E-30  2.68E-30  2.60E-30  2.72E-30
  2.76E-30  1.94E-30  7.92E-30  1.88E-30  2.33E-30  2.92E-30  2.66E-30  1.82E-30
  2.23E-30  8.15E-30  2.61E-30  1.72E-30  2.14E-30  2.88E-30  6.95E-30  2.91E-30
  2.13E-30  3.32E-30  3.68E-30  3.77E-30  3.20E-30  1.48E-30  3.16E-30  8.75E-30
  2.32E-30  2.73E-30  2.06E-30  1.93E-30  1.75E-30  1.95E-30  2.05E-30  2.35E-30
  1.77E-30  2.21E-30  1.98E-30  1.36E-30  3.11E-30  6.95E-30  2.74E-30  1.98E-30
  1.99E-30  2.40E-30  2.95E-30  7.28E-30  2.56E-30  3.01E-30  2.72E-30  2.97E-30
  2.17E-30  1.92E-30  1.99E-30  2.09E-30  2.83E-30  2.57E-30  3.66E-30  2.92E-30
  2.95E-30  2.78E-30  4.17E-30  3.75E-30  2.92E-30  3.12E-30  2.48E-30  3.30E-30
  3.29E-30  2.24E-30  3.47E-30  2.19E-30  4.32E-30  4.57E-30  4.03E-30  2.56E-30
  2.19E-30  1.82E-30  4.58E-30  2.87E-30  1.69E-30  2.60E-30  2.77E-30  2.28E-30
  3.17E-30  2.68E-30  2.11E-30  3.89E-30  1.83E-30  1.78E-30  2.29E-30  2.48E-30
  3.14E-30  2.85E-30  3.48E-30  1.97E-30  3.54E-30  3.45E-30  3.66E-30  3.14E-30
  2.40E-30  2.19E-30  2.71E-30  2.64E-30  3.20E-30  2.40E-30  3.54E-30  2.53E-30
  2.83E-30  2.79E-30  2.97E-30  4.74E-30  3.78E-30  4.15E-30  4.39E-30  3.16E-30
  2.51E-30  2.55E-30  3.14E-30  3.80E-30  2.60E-30  7.25E-30  2.83E-30  8.08E-30
  2.63E-30  3.09E-30  2.78E-30  4.03E-30  3.93E-30  3.49E-30  2.92E-30  2.51E-30
  3.21E-30  2.66E-30  2.14E-30  2.66E-30  2.57E-30  6.47E-30  2.38E-30  3.36E-30
  3.46E-30  2.30E-30  3.50E-30  4.04E-30  7.98E-30  2.23E-30  3.28E-30  7.92E-30
  8.26E-30  3.02E-30  1.64E-30  2.95E-30  1.71E-30  3.02E-30  3.42E-30  8.73E-30
  3.37E-30  3.84E-30  3.81E-30  8.53E-30  7.10E-30  3.16E-30  3.29E-30  2.00E-30
  7.05E-30  2.29E-30  2.74E-30  2.91E-30  2.86E-30  2.98E-30  2.93E-30  2.50E-30
  2.27E-30  3.24E-30  7.33E-30  6.84E-30  3.95E-30  1.63E-30  3.04E-30  2.87E-30
  7.48E-30  7.67E-30  8.28E-30  8.27E-30  9.05E-30  8.24E-30  2.70E-30  3.27E-30
  2.78E-30  3.88E-30  8.67E-30  3.73E-30  3.30E-30  2.12E-30  2.95E-30  2.81E-30
  2.97E-30  2.38E-30  3.71E-30  1.87E-30  2.94E-30  2.06E-30  3.43E-30  8.19E-30
  3.58E-30  2.27E-30  2.56E-30  2.89E-30  3.85E-30  3.68E-30  3.37E-30  3.35E-30
  2.99E-30  2.55E-30  3.87E-30  3.73E-30  3.35E-30  3.83E-30  7.77E-30  9.46E-30
  7.94E-30  5.46E-30  5.13E-30  8.24E-30  8.59E-30  2.73E-30  3.23E-30  2.09E-30
  2.41E-30  7.70E-30  2.72E-30  2.46E-30  2.22E-30  3.94E-30  3.78E-30  3.73E-30
  3.20E-30  4.19E-30  2.45E-30  3.17E-30  8.76E-30  3.60E-30  2.99E-30  2.42E-30
  3.61E-30  3.53E-30  3.05E-30  8.85E-30  3.83E-30  3.61E-30  8.27E-30  7.57E-30
  3.54E-30  3.66E-30  7.30E-30  8.17E-30  4.52E-30  7.38E-30  2.82E-30  3.46E-30
  4.66E-30  4.57E-30  7.53E-30  8.03E-30  7.32E-30  3.07E-30  3.23E-30  7.63E-30
  2.49E-30  3.54E-30  3.67E-30  4.73E-30  8.45E-30  7.87E-30  3.37E-30  3.94E-30
  3.76E-30  5.02E-30  4.05E-30  3.65E-30  7.80E-30  9.09E-30  8.74E-30  8.21E-30
  7.91E-30  5.65E-30  5.28E-30  6.83E-30  6.68E-30  5.05E-30  8.51E-30  8.34E-30
  8.42E-30  9.20E-30  6.05E-30  5.83E-30  7.33E-30  7.76E-30  6.50E-30  5.84E-30
  6.52E-30  6.58E-30  4.92E-30  5.79E-30  5.13E-30  5.99E-30  8.14E-30  7.58E-30
  6.74E-30  5.96E-30  9.94E-30  6.85E-30  8.64E-30  6.37E-30  6.17E-30  8.37E-30
  8.26E-30  8.69E-30  1.00E-29  7.34E-30  8.87E-30  9.81E-30  6.78E-30  8.04E-30
  8.94E-30  9.68E-30  8.65E-30  1.07E-29  1.27E-29  1.12E-29  1.09E-29  7.68E-30
  1.19E-29  9.00E-30  9.54E-30  8.72E-30  8.95E-30  8.87E-30  1.49E-29  1.69E-29
  9.54E-30  1.53E-29  1.44E-29  1.11E-29  1.45E-29  1.96E-29  2.22E-29  2.03E-29
  1.91E-29  9.82E-30  2.46E-29  1.84E-29  1.97E-29  2.45E-29  9.33E-30  9.36E-30
  2.78E-29  9.03E-30  2.60E-29  1.03E-29  2.01E-29  1.12E-29  9.40E-30  3.52E-29
  3.21E-29  4.16E-29  5.59E-29  2.20E-29  5.08E-29  1.45E-29  4.61E-29  5.05E-29
  5.09E-29  1.73E-29  1.23E-29  7.17E-29  5.53E-29  8.74E-29  5.41E-29  1.29E-29
  1.20E-29  5.75E-29  1.51E-29  7.91E-29  1.02E-28  1.25E-28  9.10E-29  6.95E-29
  1.28E-28  9.51E-29  8.93E-29  2.92E-29  1.30E-28  1.11E-28  1.25E-28  1.03E-28
  1.41E-28  2.55E-29  1.41E-28  1.24E-28  1.37E-29  1.10E-28  1.37E-28  1.51E-28
  1.14E-28  2.04E-28  1.11E-28  1.82E-29  2.88E-29  3.50E-29  4.01E-29  1.82E-29
  1.83E-29  1.48E-29  2.26E-28  1.50E-28  2.28E-28  1.56E-28  2.73E-28  2.78E-28
  3.32E-28  2.93E-28  2.85E-29  3.25E-28  1.77E-28  2.10E-28  2.06E-28  2.97E-29
  2.19E-29  2.21E-28  2.78E-28  3.31E-29  9.59E-29  6.18E-29  3.03E-29  1.06E-28
  3.43E-24  2.85E-24  1.26E-24  2.73E-24  5.43E-24  1.90E-24  1.49E-24  2.80E-24
  5.26E-24  1.38E-24  9.66E-24  3.04E-24  5.51E-24  9.90E-25  3.64E-24  4.16E-24
  3.71E-24  5.64E-24  3.44E-24  4.66E-24  3.67E-24  7.97E-24  5.51E-24  8.84E-25
  4.25E-24  5.43E-24  1.97E-24  7.73E-24  3.10E-24  2.01E-24  8.96E-25  7.66E-25
  1.49E-24  1.25E-24  2.05E-24  3.30E-24  2.98E-24  2.91E-24  2.90E-24  1.91E-24
  1.76E-24  1.20E-24  4.07E-24  3.88E-24  3.09E-24  2.25E-24  3.22E-24  3.37E-24
  2.77E-24  6.75E-24  3.86E-24  2.99E-24  3.71E-24  1.43E-24  1.31E-24  3.98E-24
  4.69E-24  4.64E-24  3.00E-24  6.03E-25  4.14E-24  2.33E-24  1.08E-24  3.18E-24
  4.99E-24  1.17E-24  2.33E-24  5.19E-24  2.18E-24  6.97E-24  4.16E-24  1.35E-24
  4.27E-24  7.79E-25  9.40E-24  4.41E-24  4.91E-24  3.62E-24  7.85E-25  1.02E-24
  2.38E-24  1.92E-24  3.59E-24  4.13E-24  4.41E-24  8.53E-24  3.59E-24  2.55E-24
  2.59E-24  4.48E-24  4.02E-24  3.38E-24  4.19E-24  7.53E-25  2.45E-24  2.88E-24
  3.86E-24  2.76E-24  3.90E-24  3.87E-24  7.11E-25  5.04E-24  2.82E-24  3.24E-24
  2.94E-24  7.31E-25  2.00E-24  4.85E-24  4.11E-24  3.57E-24  2.64E-24  3.79E-24
  4.04E-24  6.62E-25  2.85E-24  3.92E-24  4.86E-24  3.44E-24  3.65E-24  4.26E-24
  4.08E-24  3.31E-24  3.59E-24  2.87E-24  2.85E-24  1.18E-24  7.60E-25  4.11E-24
  2.02E-24  3.87E-24  4.75E-24  6.72E-24  5.36E-24  1.53E-24  1.39E-24  6.52E-24
  4.63E-24  6.35E-24  6.27E-24  3.33E-24  3.34E-24  4.43E-25  3.05E-24  4.71E-24
  4.00E-24  1.08E-24  4.58E-24  3.41E-24  2.56E-24  4.08E-24  3.10E-24  2.23E-24
  4.41E-24  3.96E-24  1.07E-23  4.58E-24  2.72E-24  6.01E-24  4.60E-24  2.54E-24
  4.16E-24  1.00E-24  1.09E-24  5.31E-24  3.03E-24  3.98E-24  3.60E-24  4.34E-24
  3.94E-24  3.13E-24  1.49E-24  6.03E-24  1.81E-24  2.94E-24  2.87E-24  5.25E-24
  3.08E-24  1.14E-24  2.42E-24  3.35E-24  1.12E-24  4.37E-24  3.64E-24  5.88E-24
  4.04E-24  5.08E-24  3.86E-24  4.29E-24  3.27E-24  4.72E-24  5.63E-24  3.93E-24
  5.01E-24  1.78E-24  7.47E-25  1.58E-24  1.22E-24  3.74E-24  3.91E-24  1.28E-24
  3.16E-24  4.17E-24  4.07E-24  2.61E-24  4.12E-24  3.53E-24  1.39E-24  1.16E-24
  2.44E-24  2.10E-24  3.95E-24  3.60E-24  2.74E-24  2.64E-24  1.15E-24  3.82E-24
  3.61E-24  6.16E-24  3.71E-24  4.11E-24  5.80E-24  7.40E-24  4.34E-24  3.46E-24
  3.46E-24  4.74E-24  3.78E-24  5.80E-24  4.46E-24  2.37E-24  2.71E-24  8.31E-24
  2.17E-24  1.83E-24  1.13E-24  3.38E-24  4.28E-24  3.35E-24  4.35E-24  1.26E-24
  8.62E-24  3.18E-24  6.33E-24  4.94E-24  8.28E-25  1.66E-24  3.28E-24  3.45E-24
  4.28E-24  3.39E-24  3.59E-24  3.87E-24  9.65E-25  5.44E-24  5.13E-24  1.81E-24
  1.73E-24  5.54E-24  6.09E-24  3.74E-24  6.54E-24  4.31E-24  2.86E-24  1.57E-24
  1.82E-24  4.71E-24  3.01E-24  3.61E-24  5.90E-24  4.33E-24  3.81E-24  9.92E-25
  2.85E-24  3.11E-24  4.10E-24  1.44E-24  5.66E-24  1.37E-24  1.22E-24  4.96E-25
  3.75E-24  3.56E-24  6.73E-24  1.57E-24  3.69E-24  3.53E-24  4.03E-24  2.08E-24
  3.68E-24  3.49E-24  6.05E-24  5.53E-24  2.54E-24  5.75E-24  2.88E-24  1.09E-24
  2.46E-24  1.95E-24  4.40E-24  3.15E-24  6.02E-24  1.76E-24  8.55E-24  2.88E-24
  4.59E-24  2.65E-24  9.64E-25  7.75E-24  6.81E-24  2.88E-24  3.66E-24  3.67E-24
  7.02E-24  4.05E-24  3.01E-24  3.46E-24  3.36E-24  2.69E-24  4.58E-24  1.93E-24
  4.93E-24  4.05E-24  3.23E-24  6.14E-24  3.97E-24  2.10E-24  3.82E-24  1.15E-24
  1.42E-24  2.39E-24  8.58E-25  3.39E-24  4.17E-24  1.28E-24  6.90E-24  4.21E-24
  4.36E-24  4.23E-24  8.86E-24  1.50E-24  3.02E-24  5.41E-24  5.42E-24  3.86E-24
  3.03E-24  3.39E-24  3.63E-24  2.84E-24  1.90E-24  3.22E-24  4.60E-24  3.67E-24
  7.64E-24  2.10E-24  2.01E-24  4.49E-24  4.73E-24  4.24E-24  3.61E-24  2.57E-24
  3.36E-24  4.64E-24  3.13E-24  9.31E-24  3.31E-24  2.87E-24  3.94E-24  6.68E-24
  5.21E-24  5.25E-24  7.31E-25  1.60E-24  6.85E-24  5.41E-24  3.74E-24  1.76E-24
  5.41E-24  4.62E-24  5.87E-24  5.46E-24  8.20E-25  7.19E-24  8.97E-25  1.34E-24
  2.23E-24  2.37E-24  7.70E-24  8.97E-24  7.84E-24  8.66E-24  9.68E-24  6.77E-24
  2.64E-24  9.09E-24  1.08E-23  2.45E-24  5.35E-24  1.06E-23  1.81E-23  1.94E-24
  8.25E-24  6.19E-24  1.89E-23  1.02E-23  8.09E-24  1.09E-23  1.86E-23  2.90E-24
  2.10E-24  2.52E-23  1.79E-23  1.90E-23  1.38E-23  2.15E-23  1.89E-23  1.68E-23
  3.02E-23  1.78E-24  3.44E-24  3.17E-24  2.41E-23  2.97E-23  2.55E-23  3.46E-23
  3.75E-23  6.17E-24  4.50E-23  3.37E-23  3.74E-23  4.89E-23  3.97E-23  1.15E-23
  6.30E-24  6.96E-23  7.62E-23  5.38E-24  2.02E-23  6.57E-23  9.07E-23  9.00E-23
  8.49E-23  4.53E-23  7.19E-24  6.14E-23  1.63E-23  1.29E-23  1.18E-23  1.67E-22
  9.58E-23  1.59E-22  1.95E-22  1.18E-22  2.43E-22  1.94E-22  2.54E-22  4.06E-23
  2.28E-22  3.47E-23  3.04E-22  3.84E-22  1.99E-22  2.02E-22  3.31E-22  2.99E-22
  2.16E-22  3.65E-22  4.36E-23  4.52E-22  4.69E-22  7.89E-22  6.76E-22  7.74E-22
  4.79E-22  6.19E-22  1.55E-22  9.00E-22  9.38E-22  7.22E-22  8.96E-22  6.86E-22
  6.92E-22  1.24E-21  1.13E-21  8.40E-22  6.57E-23  9.10E-22  1.86E-21  9.13E-23
  1.30E-21  9.27E-23  7.50E-23  7.31E-22  9.66E-23  4.34E-21  2.08E-21  2.15E-21
  2.93E-21  4.26E-21  3.77E-21  1.49E-21  1.66E-21  2.20E-21  2.12E-21  1.04E-21
  3.08E-21  2.68E-21  9.54E-21  6.54E-21  7.76E-21  5.25E-21  1.06E-20  1.87E-21
  1.29E-20  9.17E-21  1.26E-20  1.15E-20  9.08E-21  1.03E-20  8.48E-22  1.50E-20
  1.11E-20  1.61E-20  7.68E-22  1.40E-20  1.20E-20  1.35E-20  1.64E-20  1.65E-20
  1.56E-20  1.68E-20  2.27E-20  3.40E-20  1.58E-21  1.38E-21  2.52E-20  4.00E-20
  2.17E-20  2.52E-20  6.36E-21  3.81E-21  8.58E-21  1.94E-21  3.14E-21  3.73E-20
  5.18E-20  2.48E-21  8.95E-20  7.04E-20  6.73E-20  6.85E-20  6.27E-20  8.24E-20
  1.32E-19  9.81E-20  5.90E-20  1.58E-19  1.42E-19  1.81E-19  1.85E-19  1.96E-19
  1.93E-19  1.98E-19  1.14E-19  1.60E-19  2.08E-19  1.67E-19  7.14E-20  3.18E-20
  2.76E-19  3.71E-19  2.80E-19  3.04E-19  2.13E-19  4.68E-19  3.14E-19  3.28E-19
  3.37E-19  2.96E-19  2.66E-19  2.84E-19  2.61E-19  2.74E-20  3.90E-19  1.98E-20
  4.00E-19  5.91E-19  5.39E-19  5.89E-19  7.45E-19  9.87E-19  7.35E-19  9.39E-19
  1.11E-19  4.68E-20  4.86E-19  1.58E-18  1.91E-18  1.06E-19  1.19E-18  7.18E-19
  1.69E-18  2.37E-18  2.51E-18  1.07E-18  9.94E-19  3.58E-18  2.33E-18  3.16E-19
  2.70E-19  4.57E-19  6.57E-19  4.75E-18  5.10E-18  5.20E-18  2.96E-18  2.21E-19
  3.50E-19  1.59E-18  4.38E-19  8.99E-19  8.95E-19  1.51E-18  1.79E-17  1.57E-17
  1.65E-17  9.24E-19  1.07E-17  2.99E-17  2.06E-17  3.06E-17  1.66E-17  3.91E-17
  1.79E-17  3.85E-17  3.18E-17  2.67E-17  2.69E-17  2.44E-17  4.31E-18  4.67E-18
  1.72E-18  3.91E-18  4.15E-17  4.32E-17  3.36E-17  3.87E-17  5.13E-17  5.15E-17
  3.23E-17  4.47E-17  1.18E-17  1.37E-18  1.15E-17  3.38E-18  2.47E-18  7.65E-17
  1.16E-16  1.09E-16  9.03E-18  1.10E-16  4.53E-17  1.84E-17  5.18E-17  3.66E-17
  6.89E-17  1.65E-17  1.59E-17  5.30E-16  6.44E-16  3.16E-16  2.38E-16  4.53E-16
  3.25E-16  6.71E-16  6.01E-16  8.73E-16  5.60E-16  8.20E-16  5.31E-16  7.53E-17
  8.24E-16  7.08E-16  9.40E-17  7.41E-16  9.83E-16  1.11E-15  1.13E-15  4.95E-16
  2.97E-16  6.79E-16  2.43E-15  2.04E-15  6.58E-16  5.35E-16  2.78E-15  2.93E-15
  4.23E-15  2.41E-15  1.01E-15  3.26E-15  2.20E-15  3.35E-15  4.92E-16  4.36E-15
  5.02E-15  3.27E-15  4.92E-15  4.68E-15  3.40E-15  2.49E-15  3.56E-16  2.65E-16
  2.74E-16  1.03E-14  4.97E-15  5.60E-15  8.21E-15  1.69E-15  1.85E-15  2.35E-14
  2.47E-14  7.84E-16  3.71E-15  2.43E-15  2.43E-15  8.78E-16  2.90E-15  5.24E-14
  4.61E-14  7.66E-15  3.60E-14  3.93E-14  2.93E-15  8.83E-14  1.30E-13  1.06E-13
  1.15E-13  1.29E-14  2.98E-13  3.22E-13  3.33E-13  3.27E-13  1.61E-14  1.87E-14
  1.55E-13  2.71E-13  6.21E-14  3.73E-14  1.18E-12  1.44E-12  3.62E-13  3.79E-13
  2.46E-12  2.73E-12  2.06E-12  2.68E-12  2.07E-13  2.27E-12  2.69E-12  3.48E-13
  1.23E-13  3.80E-13  3.62E-13  5.89E-13  5.37E-12  5.32E-12  1.43E-12  6.72E-12
  5.66E-12  6.39E-12  7.23E-12  1.03E-11  7.04E-12  8.14E-12  7.96E-12  6.71E-12
  1.75E-12  9.27E-12  4.61E-13  9.53E-12  1.20E-11  1.88E-11  1.24E-11  8.09E-13
  2.00E-11  2.59E-11  2.50E-11  2.00E-11  1.03E-12  3.86E-12  2.22E-11  2.90E-11
  2.64E-11  2.15E-11  6.83E-11  7.58E-11  1.20E-11  9.78E-12  1.23E-11  2.26E-11
  1.54E-11  8.58E-11  1.25E-09  1.17E-09  1.47E-09  1.25E-09  2.36E-10  1.83E-09
  1.13E-09  4.89E-10  1.63E-09  1.42E-10  3.50E-09  4.52E-09  3.83E-09  9.50E-10
  3.09E-10  8.85E-09  1.02E-08  7.61E-10  8.60E-09  9.75E-09  1.47E-08  1.03E-08
  1.23E-09  1.63E-08  4.27E-10  1.13E-08  2.18E-08  1.56E-08  1.99E-09  6.59E-10
  7.21E-10  1.23E-09  5.31E-09  6.44E-09  2.23E-09  5.36E-08  7.83E-08  4.90E-08
  7.15E-08  7.70E-09  1.80E-08  7.00E-09  1.46E-08  9.04E-09  6.97E-09  3.88E-08
  3.47E-08  4.03E-07  2.00E-06  2.91E-07  2.42E-05  5.79E-06  1.29E-06  1.18E-06
 -4.0098E+00 -4.0034E+00 -3.9928E+00 -3.9779E+00 -3.9587E+00 -3.9353E+00
 -3.9076E+00 -3.8757E+00 -3.8396E+00 -3.7992E+00 -3.7548E+00 -3.7207E+00
 -3.7206E+00 -3.7143E+00 -3.7142E+00 -3.7062E+00 -3.7037E+00 -3.7037E+00
 -3.6970E+00 -3.6968E+00 -3.6906E+00 -3.6904E+00 -3.6888E+00 -3.6887E+00
 -3.6800E+00 -3.6799E+00 -3.6696E+00 -3.6696E+00 -3.6651E+00 -3.6649E+00
 -3.6535E+00 -3.6462E+00 -3.6461E+00 -3.6458E+00 -3.6457E+00 -3.6225E+00
 -3.6223E+00 -3.6185E+00 -3.6184E+00 -3.5966E+00 -3.5948E+00 -3.5945E+00
 -3.5866E+00 -3.5864E+00 -3.5629E+00 -3.5626E+00 -3.5505E+00 -3.5503E+00
 -3.5357E+00 -3.5268E+00 -3.5265E+00 -3.5102E+00 -3.5100E+00 -3.4865E+00
 -3.4862E+00 -3.4711E+00 -3.4655E+00 -3.4654E+00 -3.4421E+00 -3.4417E+00
 -3.4174E+00 -3.4168E+00 -3.4079E+00 -3.4078E+00 -3.4077E+00 -3.4076E+00
 -3.4017E+00 -3.4014E+00 -3.4013E+00 -3.4013E+00 -3.4012E+00 -3.3935E+00
 -3.3931E+00 -3.3908E+00 -3.3908E+00 -3.3907E+00 -3.3906E+00 -3.3759E+00
 -3.3759E+00 -3.3758E+00 -3.3757E+00 -3.3646E+00 -3.3640E+00 -3.3568E+00
 -3.3567E+00 -3.3567E+00 -3.3565E+00 -3.3408E+00 -3.3404E+00 -3.3333E+00
 -3.3333E+00 -3.3331E+00 -3.3330E+00 -3.3287E+00 -3.3077E+00 -3.3072E+00
 -3.3057E+00 -3.3056E+00 -3.3055E+00 -3.3053E+00 -3.2840E+00 -3.2834E+00
 -3.2738E+00 -3.2737E+00 -3.2736E+00 -3.2733E+00 -3.2517E+00 -3.2468E+00
 -3.2462E+00 -3.2377E+00 -3.2376E+00 -3.2375E+00 -3.2372E+00 -3.2231E+00
 -3.2225E+00 -3.1974E+00 -3.1972E+00 -3.1971E+00 -3.1968E+00 -3.1818E+00
 -3.1812E+00 -3.1709E+00 -3.1585E+00 -3.1579E+00 -3.1527E+00 -3.1526E+00
 -3.1524E+00 -3.1523E+00 -3.1129E+00 -3.1121E+00 -3.1046E+00 -3.1043E+00
 -3.1042E+00 -3.1037E+00 -3.0890E+00 -3.0883E+00 -3.0859E+00 -3.0518E+00
 -3.0515E+00 -3.0514E+00 -3.0509E+00 -3.0398E+00 -3.0391E+00 -3.0161E+00
 -3.0153E+00 -2.9974E+00 -2.9950E+00 -2.9946E+00 -2.9945E+00 -2.9940E+00
 -2.9627E+00 -2.9620E+00 -2.9393E+00 -2.9384E+00 -2.9341E+00 -2.9337E+00
 -2.9336E+00 -2.9330E+00 -2.9050E+00 -2.8816E+00 -2.8810E+00 -2.8692E+00
 -2.8687E+00 -2.8685E+00 -2.8679E+00 -2.8583E+00 -2.8575E+00 -2.8534E+00
 -2.8531E+00 -2.8470E+00 -2.8467E+00 -2.8364E+00 -2.8362E+00 -2.8215E+00
 -2.8212E+00 -2.8096E+00 -2.8023E+00 -2.8020E+00 -2.8003E+00 -2.7996E+00
 -2.7993E+00 -2.7989E+00 -2.7961E+00 -2.7958E+00 -2.7788E+00 -2.7786E+00
 -2.7737E+00 -2.7726E+00 -2.7582E+00 -2.7580E+00 -2.7518E+00 -2.7516E+00
 -2.7512E+00 -2.7509E+00 -2.7413E+00 -2.7410E+00 -2.7272E+00 -2.7269E+00
 -2.7265E+00 -2.7264E+00 -2.7261E+00 -2.7258E+00 -2.7192E+00 -2.7190E+00
 -2.7122E+00 -2.7072E+00 -2.7072E+00 -2.7069E+00 -2.7036E+00 -2.6850E+00
 -2.6839E+00 -2.6838E+00 -2.6835E+00 -2.6830E+00 -2.6828E+00 -2.6561E+00
 -2.6558E+00 -2.6503E+00 -2.6498E+00 -2.6494E+00 -2.6487E+00 -2.6428E+00
 -2.6425E+00 -2.6241E+00 -2.6238E+00 -2.6173E+00 -2.6144E+00 -2.6017E+00
 -2.5984E+00 -2.5981E+00 -2.5926E+00 -2.5914E+00 -2.5881E+00 -2.5878E+00
 -2.5690E+00 -2.5685E+00 -2.5683E+00 -2.5677E+00 -2.5497E+00 -2.5495E+00
 -2.5477E+00 -2.5474E+00 -2.5405E+00 -2.5404E+00 -2.5403E+00 -2.5401E+00
 -2.5342E+00 -2.5340E+00 -2.5339E+00 -2.5337E+00 -2.5235E+00 -2.5234E+00
 -2.5233E+00 -2.5232E+00 -2.5205E+00 -2.5180E+00 -2.5086E+00 -2.5085E+00
 -2.5084E+00 -2.5082E+00 -2.5033E+00 -2.5030E+00 -2.4969E+00 -2.4968E+00
 -2.4966E+00 -2.4956E+00 -2.4943E+00 -2.4895E+00 -2.4893E+00 -2.4892E+00
 -2.4891E+00 -2.4838E+00 -2.4835E+00 -2.4827E+00 -2.4826E+00 -2.4691E+00
 -2.4690E+00 -2.4690E+00 -2.4688E+00 -2.4660E+00 -2.4658E+00 -2.4658E+00
 -2.4656E+00 -2.4627E+00 -2.4627E+00 -2.4626E+00 -2.4624E+00 -2.4547E+00
 -2.4544E+00 -2.4522E+00 -2.4521E+00 -2.4519E+00 -2.4518E+00 -2.4403E+00
 -2.4400E+00 -2.4384E+00 -2.4381E+00 -2.4381E+00 -2.4379E+00 -2.4372E+00
 -2.4372E+00 -2.4370E+00 -2.4369E+00 -2.4197E+00 -2.4181E+00 -2.4180E+00
 -2.4178E+00 -2.4177E+00 -2.4173E+00 -2.4064E+00 -2.4062E+00 -2.4062E+00
 -2.4059E+00 -2.4022E+00 -2.4018E+00 -2.4002E+00 -2.3988E+00 -2.3948E+00
 -2.3947E+00 -2.3945E+00 -2.3944E+00 -2.3942E+00 -2.3937E+00 -2.3913E+00
 -2.3902E+00 -2.3829E+00 -2.3791E+00 -2.3789E+00 -2.3703E+00 -2.3701E+00
 -2.3700E+00 -2.3698E+00 -2.3670E+00 -2.3669E+00 -2.3668E+00 -2.3665E+00
 -2.3451E+00 -2.3448E+00 -2.3351E+00 -2.3349E+00 -2.3348E+00 -2.3346E+00
 -2.3301E+00 -2.3298E+00 -2.3298E+00 -2.3295E+00 -2.3155E+00 -2.3143E+00
 -2.3142E+00 -2.3131E+00 -2.3048E+00 -2.3039E+00 -2.3018E+00 -2.3010E+00
 -2.2989E+00 -2.2989E+00 -2.2987E+00 -2.2985E+00 -2.2894E+00 -2.2881E+00
 -2.2856E+00 -2.2853E+00 -2.2852E+00 -2.2850E+00 -2.2842E+00 -2.2839E+00
 -2.2676E+00 -2.2586E+00 -2.2585E+00 -2.2584E+00 -2.2581E+00 -2.2452E+00
 -2.2450E+00 -2.2370E+00 -2.2368E+00 -2.2366E+00 -2.2363E+00 -2.2195E+00
 -2.2193E+00 -2.2140E+00 -2.2138E+00 -2.2136E+00 -2.2136E+00 -2.2081E+00
 -2.2076E+00 -2.2069E+00 -2.2055E+00 -2.2052E+00 -2.2045E+00 -2.1841E+00
 -2.1839E+00 -2.1837E+00 -2.1835E+00 -2.1822E+00 -2.1807E+00 -2.1720E+00
 -2.1718E+00 -2.1658E+00 -2.1656E+00 -2.1653E+00 -2.1649E+00 -2.1500E+00
 -2.1497E+00 -2.1486E+00 -2.1276E+00 -2.1273E+00 -2.1271E+00 -2.1268E+00
 -2.1130E+00 -2.1128E+00 -2.1126E+00 -2.1122E+00 -2.1073E+00 -2.1060E+00
 -2.1048E+00 -2.1038E+00 -2.0983E+00 -2.0969E+00 -2.0927E+00 -2.0913E+00
 -2.0770E+00 -2.0767E+00 -2.0707E+00 -2.0691E+00 -2.0665E+00 -2.0663E+00
 -2.0661E+00 -2.0658E+00 -2.0561E+00 -2.0559E+00 -2.0557E+00 -2.0553E+00
 -2.0262E+00 -2.0143E+00 -2.0142E+00 -2.0033E+00 -2.0020E+00 -2.0019E+00
 -2.0017E+00 -2.0015E+00 -2.0015E+00 -2.0010E+00 -2.0008E+00 -1.9984E+00
 -1.9979E+00 -1.9952E+00 -1.9950E+00 -1.9947E+00 -1.9942E+00 -1.9799E+00
 -1.9774E+00 -1.9556E+00 -1.9539E+00 -1.9328E+00 -1.9327E+00 -1.9321E+00
 -1.9319E+00 -1.9299E+00 -1.9298E+00 -1.9294E+00 -1.9294E+00 -1.9290E+00
 -1.9290E+00 -1.9195E+00 -1.9190E+00 -1.9011E+00 -1.8956E+00 -1.8940E+00
 -1.8915E+00 -1.8909E+00 -1.8617E+00 -1.8613E+00 -1.8612E+00 -1.8610E+00
 -1.8606E+00 -1.8590E+00 -1.8588E+00 -1.8584E+00 -1.8584E+00 -1.8582E+00
 -1.8404E+00 -1.8402E+00 -1.8362E+00 -1.8345E+00 -1.8345E+00 -1.8342E+00
 -1.7885E+00 -1.7882E+00 -1.7879E+00 -1.7873E+00 -1.7859E+00 -1.7849E+00
 -1.7846E+00 -1.7832E+00 -1.7802E+00 -1.7798E+00 -1.7791E+00 -1.7777E+00
 -1.7676E+00 -1.7475E+00 -1.7474E+00 -1.7458E+00 -1.7455E+00 -1.7383E+00
 -1.7357E+00 -1.7136E+00 -1.7117E+00 -1.7113E+00 -1.7110E+00 -1.7107E+00
 -1.7102E+00 -1.7015E+00 -1.7015E+00 -1.7010E+00 -1.7007E+00 -1.6683E+00
 -1.6664E+00 -1.6663E+00 -1.6639E+00 -1.6534E+00 -1.6531E+00 -1.6509E+00
 -1.6505E+00 -1.6343E+00 -1.6301E+00 -1.6299E+00 -1.6297E+00 -1.6291E+00
 -1.6175E+00 -1.6173E+00 -1.6160E+00 -1.6156E+00 -1.6109E+00 -1.6085E+00
 -1.6017E+00 -1.6017E+00 -1.6016E+00 -1.6013E+00 -1.5954E+00 -1.5952E+00
 -1.5952E+00 -1.5949E+00 -1.5872E+00 -1.5853E+00 -1.5848E+00 -1.5847E+00
 -1.5846E+00 -1.5843E+00 -1.5699E+00 -1.5697E+00 -1.5697E+00 -1.5694E+00
 -1.5575E+00 -1.5573E+00 -1.5525E+00 -1.5519E+00 -1.5507E+00 -1.5505E+00
 -1.5505E+00 -1.5502E+00 -1.5471E+00 -1.5468E+00 -1.5455E+00 -1.5447E+00
 -1.5446E+00 -1.5445E+00 -1.5442E+00 -1.5442E+00 -1.5280E+00 -1.5278E+00
 -1.5273E+00 -1.5271E+00 -1.5270E+00 -1.5269E+00 -1.5268E+00 -1.5267E+00
 -1.4996E+00 -1.4994E+00 -1.4994E+00 -1.4991E+00 -1.4973E+00 -1.4817E+00
 -1.4789E+00 -1.4677E+00 -1.4675E+00 -1.4674E+00 -1.4671E+00 -1.4607E+00
 -1.4606E+00 -1.4588E+00 -1.4573E+00 -1.4541E+00 -1.4531E+00 -1.4522E+00
 -1.4518E+00 -1.4464E+00 -1.4463E+00 -1.4352E+00 -1.4351E+00 -1.4342E+00
 -1.4340E+00 -1.4315E+00 -1.4313E+00 -1.4313E+00 -1.4310E+00 -1.4258E+00
 -1.4243E+00 -1.4236E+00 -1.4218E+00 -1.4080E+00 -1.4071E+00 -1.4016E+00
 -1.4007E+00 -1.3913E+00 -1.3911E+00 -1.3910E+00 -1.3910E+00 -1.3907E+00
 -1.3902E+00 -1.3762E+00 -1.3752E+00 -1.3658E+00 -1.3656E+00 -1.3632E+00
 -1.3627E+00 -1.3570E+00 -1.3565E+00 -1.3560E+00 -1.3500E+00 -1.3498E+00
 -1.3491E+00 -1.3469E+00 -1.3468E+00 -1.3466E+00 -1.3464E+00 -1.3462E+00
 -1.3388E+00 -1.3385E+00 -1.3377E+00 -1.3373E+00 -1.3372E+00 -1.3367E+00
 -1.3334E+00 -1.3325E+00 -1.3229E+00 -1.3209E+00 -1.3058E+00 -1.3049E+00
 -1.2995E+00 -1.2981E+00 -1.2980E+00 -1.2979E+00 -1.2979E+00 -1.2976E+00
 -1.2973E+00 -1.2954E+00 -1.2738E+00 -1.2730E+00 -1.2689E+00 -1.2687E+00
 -1.2666E+00 -1.2662E+00 -1.2453E+00 -1.2451E+00 -1.2451E+00 -1.2447E+00
 -1.2426E+00 -1.2422E+00 -1.2382E+00 -1.2380E+00 -1.2378E+00 -1.2370E+00
 -1.2370E+00 -1.2368E+00 -1.2279E+00 -1.2276E+00 -1.2120E+00 -1.2089E+00
 -1.2064E+00 -1.1974E+00 -1.1965E+00 -1.1938E+00 -1.1933E+00 -1.1887E+00
 -1.1885E+00 -1.1885E+00 -1.1882E+00 -1.1874E+00 -1.1869E+00 -1.1858E+00
 -1.1837E+00 -1.1769E+00 -1.1763E+00 -1.1696E+00 -1.1686E+00 -1.1681E+00
 -1.1678E+00 -1.1668E+00 -1.1659E+00 -1.1655E+00 -1.1652E+00 -1.1619E+00
 -1.1613E+00 -1.1529E+00 -1.1521E+00 -1.1427E+00 -1.1423E+00 -1.1336E+00
 -1.1336E+00 -1.1325E+00 -1.1324E+00 -1.1309E+00 -1.1306E+00 -1.1277E+00
 -1.1276E+00 -1.1274E+00 -1.1271E+00 -1.1192E+00 -1.1188E+00 -1.1122E+00
 -1.1121E+00 -1.1040E+00 -1.1032E+00 -1.0953E+00 -1.0949E+00 -1.0942E+00
 -1.0942E+00 -1.0916E+00 -1.0911E+00 -1.0889E+00 -1.0886E+00 -1.0878E+00
 -1.0877E+00 -1.0782E+00 -1.0780E+00 -1.0773E+00 -1.0772E+00 -1.0690E+00
 -1.0661E+00 -1.0638E+00 -1.0638E+00 -1.0636E+00 -1.0634E+00 -1.0631E+00
 -1.0626E+00 -1.0625E+00 -1.0624E+00 -1.0623E+00 -1.0622E+00 -1.0621E+00
 -1.0615E+00 -1.0612E+00 -1.0596E+00 -1.0592E+00 -1.0516E+00 -1.0507E+00
 -1.0449E+00 -1.0442E+00 -1.0439E+00 -1.0431E+00 -1.0430E+00 -1.0428E+00
 -1.0370E+00 -1.0352E+00 -1.0351E+00 -1.0332E+00 -1.0246E+00 -1.0244E+00
 -1.0236E+00 -1.0234E+00 -1.0231E+00 -1.0230E+00 -1.0206E+00 -1.0203E+00
 -1.0197E+00 -1.0195E+00 -1.0152E+00 -1.0150E+00 -9.9460E-01 -9.9382E-01
 -9.9352E-01 -9.9341E-01 -9.9340E-01 -9.9331E-01 -9.9301E-01 -9.9279E-01
 -9.9271E-01 -9.9211E-01 -9.9188E-01 -9.9157E-01 -9.8326E-01 -9.8275E-01
 -9.6107E-01 -9.6071E-01 -9.6012E-01 -9.5997E-01 -9.5618E-01 -9.5593E-01
 -9.5382E-01 -9.5332E-01 -9.3876E-01 -9.3830E-01 -9.3382E-01 -9.3295E-01
 -9.2531E-01 -9.2478E-01 -9.2471E-01 -9.2432E-01 -9.2401E-01 -9.2225E-01
 -9.2044E-01 -9.2035E-01 -9.2020E-01 -9.1989E-01 -9.1433E-01 -9.1431E-01
 -9.1404E-01 -9.1358E-01 -9.1225E-01 -9.0468E-01 -9.0461E-01 -9.0418E-01
 -9.0414E-01 -9.0043E-01 -8.9908E-01 -8.9829E-01 -8.9826E-01 -8.9826E-01
 -8.9815E-01 -8.9783E-01 -8.9770E-01 -8.9678E-01 -8.9482E-01 -8.9200E-01
 -8.9082E-01 -8.9015E-01 -8.8972E-01 -8.8771E-01 -8.8770E-01 -8.8715E-01
 -8.8710E-01 -8.8477E-01 -8.8427E-01 -8.8377E-01 -8.8354E-01 -8.7281E-01
 -8.7279E-01 -8.7228E-01 -8.7217E-01 -8.7116E-01 -8.7096E-01 -8.6689E-01
 -8.6637E-01 -8.5355E-01 -8.5352E-01 -8.5317E-01 -8.5307E-01 -8.4668E-01
 -8.4653E-01 -8.4539E-01 -8.4504E-01 -8.4117E-01 -8.4083E-01 -8.4022E-01
 -8.4011E-01 -8.3975E-01 -8.3971E-01 -8.3925E-01 -8.3905E-01 -8.3703E-01
 -8.3664E-01 -8.3010E-01 -8.3006E-01 -8.2963E-01 -8.2960E-01 -8.0255E-01
 -8.0234E-01 -8.0204E-01 -8.0189E-01 -8.0020E-01 -8.0014E-01 -7.9980E-01
 -7.9901E-01 -7.9832E-01 -7.9815E-01 -7.9129E-01 -7.9078E-01 -7.9040E-01
 -7.9011E-01 -7.8052E-01 -7.8017E-01 -7.7551E-01 -7.7468E-01 -7.7418E-01
 -7.7283E-01 -7.7253E-01 -7.7059E-01 -7.7032E-01 -7.7013E-01 -7.6981E-01
 -7.6290E-01 -7.6275E-01 -7.6254E-01 -7.6238E-01 -7.5735E-01 -7.5669E-01
 -7.5576E-01 -7.5456E-01 -7.5321E-01 -7.5235E-01 -7.5147E-01 -7.5021E-01
 -7.4292E-01 -7.4287E-01 -7.3857E-01 -7.3839E-01 -7.3768E-01 -7.3763E-01
 -7.3454E-01 -7.3428E-01 -7.3395E-01 -7.3380E-01 -7.2853E-01 -7.2838E-01
 -7.2829E-01 -7.2666E-01 -7.2587E-01 -7.2585E-01 -7.2539E-01 -7.1969E-01
 -7.1923E-01 -6.9416E-01 -6.9399E-01 -6.9371E-01 -6.9344E-01 -6.9085E-01
 -6.8219E-01 -6.8164E-01 -6.8137E-01 -6.8092E-01 -6.8044E-01 -6.8033E-01
 -6.7857E-01 -6.7835E-01 -6.7771E-01 -6.7748E-01 -6.7733E-01 -6.7702E-01
 -6.5493E-01 -6.5466E-01 -6.4984E-01 -6.4953E-01 -6.4947E-01 -6.4939E-01
 -6.4891E-01 -6.4874E-01 -6.4735E-01 -6.4702E-01 -6.4467E-01 -6.2412E-01
 -6.2141E-01 -6.2113E-01 -6.2050E-01 -6.2015E-01 -6.1977E-01 -6.1290E-01
 -6.1266E-01 -6.1211E-01 -6.1009E-01 -6.0944E-01 -6.0918E-01 -6.0914E-01
 -6.0831E-01 -6.0756E-01 -6.0725E-01 -6.0131E-01 -6.0089E-01 -6.0079E-01
 -6.0033E-01 -5.9929E-01 -5.9772E-01 -5.9746E-01 -5.9340E-01 -5.8874E-01
 -5.8873E-01 -5.8855E-01 -5.8828E-01 -5.8534E-01 -5.8497E-01 -5.8445E-01
 -5.7475E-01 -5.6904E-01 -5.6885E-01 -5.6799E-01 -5.5961E-01 -5.5862E-01
 -5.5842E-01 -5.5753E-01 -5.5728E-01 -5.5434E-01 -5.5372E-01 -5.5333E-01
 -5.5300E-01 -5.4856E-01 -5.4805E-01 -5.4798E-01 -5.4751E-01 -5.4365E-01
 -5.4315E-01 -5.3486E-01 -5.1760E-01 -5.1723E-01 -5.1258E-01 -5.1232E-01
 -5.1042E-01 -5.0964E-01 -5.0646E-01 -5.0205E-01 -5.0080E-01 -4.9632E-01
 -4.9631E-01 -4.9610E-01 -4.9587E-01 -4.9146E-01 -4.9115E-01 -4.9088E-01
 -4.9047E-01 -4.8762E-01 -4.8681E-01 -4.8665E-01 -4.8661E-01 -4.8632E-01
 -4.8583E-01 -4.8496E-01 -4.8443E-01 -4.8433E-01 -4.8376E-01 -4.7701E-01
 -4.7688E-01 -4.6958E-01 -4.6908E-01 -4.6639E-01 -4.6396E-01 -4.6343E-01
 -4.6185E-01 -4.6099E-01 -4.5907E-01 -4.5867E-01 -4.4722E-01 -4.4530E-01
 -4.4319E-01 -4.3651E-01 -4.3557E-01 -4.3528E-01 -4.3323E-01 -4.3081E-01
 -4.3046E-01 -4.3039E-01 -4.3036E-01 -4.3023E-01 -4.2973E-01 -4.2871E-01
 -4.2869E-01 -4.1880E-01 -4.1423E-01 -4.1336E-01 -4.1328E-01 -4.1268E-01
 -4.1159E-01 -4.0802E-01 -3.9967E-01 -3.9946E-01 -3.9942E-01 -3.9902E-01
 -3.9761E-01 -3.9499E-01 -3.9446E-01 -3.8388E-01 -3.8353E-01 -3.8314E-01
 -3.6974E-01 -3.6572E-01 -3.6548E-01 -3.6508E-01 -3.6472E-01 -3.6454E-01
 -3.6379E-01 -3.6154E-01 -3.6018E-01 -3.6000E-01 -3.5784E-01 -3.5732E-01
 -3.5469E-01 -3.5427E-01 -3.4105E-01 -3.4079E-01 -3.3842E-01 -3.3719E-01
 -3.3623E-01 -3.3621E-01 -3.3562E-01 -3.3398E-01 -3.3071E-01 -3.3029E-01
 -3.2873E-01 -3.2784E-01 -3.1246E-01 -3.1222E-01 -3.1025E-01 -3.0999E-01
 -3.0981E-01 -3.0948E-01 -3.0757E-01 -3.0736E-01 -3.0490E-01 -3.0208E-01
 -3.0155E-01 -3.0082E-01 -3.0041E-01 -2.9909E-01 -2.9898E-01 -2.9896E-01
 -2.9887E-01 -2.9853E-01 -2.9849E-01 -2.9678E-01 -2.9640E-01 -2.9602E-01
 -2.9563E-01 -2.9190E-01 -2.8563E-01 -2.8373E-01 -2.8063E-01 -2.7568E-01
 -2.7320E-01 -2.7032E-01 -2.6980E-01 -2.6948E-01 -2.6790E-01 -2.6580E-01
 -2.5611E-01 -2.5527E-01 -2.5493E-01 -2.5434E-01 -2.4802E-01 -2.4700E-01
 -2.4627E-01 -2.4592E-01 -2.3793E-01 -2.3021E-01 -2.2998E-01 -2.2779E-01
 -2.2733E-01 -2.2685E-01 -2.2362E-01 -2.2357E-01 -2.2341E-01 -2.2282E-01
 -2.2249E-01 -2.2017E-01 -2.1990E-01 -2.1469E-01 -2.1161E-01 -2.0562E-01
 -2.0491E-01 -2.0154E-01 -2.0035E-01 -2.0011E-01 -1.9699E-01 -1.9444E-01
 -1.9443E-01 -1.9442E-01 -1.9410E-01 -1.9061E-01 -1.8883E-01 -1.8505E-01
 -1.8264E-01 -1.8104E-01 -1.8074E-01 -1.7395E-01 -1.7256E-01 -1.7205E-01
 -1.7152E-01 -1.7088E-01 -1.7008E-01 -1.6507E-01 -1.6496E-01 -1.6337E-01
 -1.6326E-01 -1.5740E-01 -1.5637E-01 -1.5633E-01 -1.5561E-01 -1.5522E-01
 -1.5513E-01 -1.5445E-01 -1.5255E-01 -1.4999E-01 -1.4996E-01 -1.4920E-01
 -1.4885E-01 -1.4850E-01 -1.4650E-01 -1.4638E-01 -1.4597E-01 -1.4595E-01
 -1.4552E-01 -1.4169E-01 -1.4063E-01 -1.3993E-01 -1.3938E-01 -1.3931E-01
 -1.3870E-01 -1.3829E-01 -1.3613E-01 -1.2832E-01 -1.2456E-01 -1.2447E-01
 -1.2442E-01 -1.2370E-01 -1.2337E-01 -1.2331E-01 -1.2243E-01 -1.0555E-01
 -1.0542E-01 -1.0524E-01 -1.0500E-01 -1.0479E-01 -1.0460E-01 -1.0434E-01
 -1.0407E-01 -1.0119E-01 -9.7492E-02 -9.7390E-02 -9.6068E-02 -9.5768E-02
 -9.5672E-02 -9.5411E-02 -9.1538E-02 -9.1358E-02 -8.8203E-02 -8.8002E-02
 -8.6249E-02 -8.5670E-02 -8.5501E-02 -8.4851E-02 -8.3673E-02 -8.2155E-02
 -8.1914E-02 -8.1660E-02 -8.1286E-02 -8.1105E-02 -8.1011E-02 -8.0646E-02
 -8.0524E-02 -7.9451E-02 -6.5392E-02 -6.4988E-02 -6.4825E-02 -6.4380E-02
 -5.5355E-02 -5.5046E-02 -5.4177E-02 -5.4065E-02 -5.3461E-02 -5.2965E-02
 -4.4509E-02 -4.4131E-02 -3.7299E-02 -3.7162E-02 -3.6963E-02 -3.6528E-02
 -3.0972E-02 -3.0730E-02 -3.0507E-02 -3.0198E-02 -2.9265E-02 -2.9045E-02
 -2.7142E-02 -2.6835E-02 -2.2196E-02 -2.2037E-02 -2.2014E-02 -2.1498E-02
 -2.1063E-02 -2.0344E-02 -2.0259E-02 -1.9939E-02 -1.9541E-02 -1.2334E-02
 -5.4671E-03 -5.3171E-03 -4.9718E-03 -4.6727E-03 -4.4686E-03 -5.2044E-04
  2.1179E-04  1.7149E-03  3.8349E-03  4.5677E-03  6.3406E-03  6.8513E-03
  7.2033E-03  8.5107E-03  9.9079E-03  1.0609E-02  1.1143E-02  1.1544E-02
  1.3789E-02  1.3797E-02  1.3877E-02  1.3959E-02  1.4134E-02  1.4441E-02
  1.4453E-02  1.4905E-02  1.7639E-02  1.8984E-02  1.9707E-02  1.9799E-02
  1.9862E-02  2.0097E-02  2.0213E-02  2.2723E-02  2.4607E-02  2.4712E-02
  2.4822E-02  2.5181E-02  3.7224E-02  3.7406E-02  3.7629E-02  3.7930E-02
  3.9299E-02  3.9702E-02  4.1777E-02  4.2742E-02  4.3053E-02  4.3711E-02
  4.5208E-02  4.5599E-02  5.4196E-02  5.4327E-02  5.4903E-02  5.5338E-02
  6.4892E-02  6.5079E-02  6.5303E-02  6.5607E-02  7.0522E-02  9.2091E-02
  9.2291E-02  9.6802E-02  9.6967E-02  9.7214E-02  9.7514E-02  9.8681E-02
  9.8857E-02  9.9388E-02  9.9825E-02  1.0374E-01  1.0411E-01  1.0648E-01
  1.0652E-01  1.0714E-01  1.0733E-01  1.0778E-01  1.0842E-01  1.0893E-01
  1.0919E-01  1.1247E-01  1.1271E-01  1.1347E-01  1.1374E-01  1.1394E-01
  1.1416E-01  1.3297E-01  1.3311E-01  1.3342E-01  1.3370E-01  1.3951E-01
  1.3953E-01  1.3976E-01  1.3997E-01  1.4763E-01  1.4780E-01  1.4827E-01
  1.4871E-01  1.6346E-01  1.6562E-01  1.6614E-01  1.6805E-01  1.7322E-01
  1.7334E-01  1.7360E-01  1.7396E-01  1.8246E-01  1.8325E-01  1.8468E-01
  1.8535E-01  1.8581E-01  1.8612E-01  1.8682E-01  1.8738E-01  1.8773E-01
  1.8904E-01  1.9878E-01  1.9905E-01  2.0002E-01  2.0018E-01  2.0070E-01
  2.0117E-01  2.0194E-01  2.0236E-01  2.0584E-01  2.0708E-01  2.0785E-01
  2.0838E-01  2.0890E-01  2.1045E-01  2.1229E-01  2.1396E-01  2.1456E-01
  2.1479E-01  2.1724E-01  2.1733E-01  2.1775E-01  2.1789E-01  2.1803E-01
  2.1813E-01  2.1841E-01  2.1872E-01  2.4219E-01  2.4525E-01  2.4546E-01
  2.4570E-01  2.4944E-01  2.5453E-01  2.5605E-01  2.5644E-01  2.5678E-01
  2.5706E-01  2.5761E-01  2.5768E-01  2.5815E-01  2.5871E-01  2.5907E-01
  2.5924E-01  2.5929E-01  2.5945E-01  2.5972E-01  2.6258E-01  2.6286E-01
  2.6644E-01  2.6653E-01  2.6676E-01  2.6706E-01  2.6819E-01  2.7125E-01
  2.8699E-01  2.8886E-01  2.9054E-01  2.9167E-01  2.9564E-01  2.9600E-01
  2.9802E-01  2.9844E-01  3.0249E-01  3.1148E-01  3.1228E-01  3.1280E-01
  3.1341E-01  3.1784E-01  3.1803E-01  3.1855E-01  3.1904E-01  3.1923E-01
  3.1937E-01  3.1961E-01  3.1993E-01  3.2060E-01  3.2193E-01  3.2224E-01
  3.2740E-01  3.2778E-01  3.2947E-01  3.3018E-01  3.3052E-01  3.3178E-01
  3.3221E-01  3.3392E-01  3.3410E-01  3.3464E-01  3.3936E-01  3.3964E-01
  3.4074E-01  3.4384E-01  3.5693E-01  3.5840E-01  3.6059E-01  3.6186E-01
  3.6832E-01  3.7583E-01  3.7604E-01  3.7613E-01  3.7652E-01  3.7902E-01
  3.8036E-01  3.8062E-01  3.8068E-01  3.8089E-01  3.8265E-01  3.8432E-01
  3.8469E-01  3.8503E-01  3.8511E-01  3.8554E-01  3.8716E-01  3.9657E-01
  3.9680E-01  3.9883E-01  3.9921E-01  3.9987E-01  4.0017E-01  4.0377E-01
  4.0437E-01  4.0446E-01  4.0484E-01  4.0590E-01  4.0599E-01  4.0620E-01
  4.0800E-01  4.1493E-01  4.2044E-01  4.2058E-01  4.2099E-01  4.2154E-01
  4.2210E-01  4.2380E-01  4.2781E-01  4.2958E-01  4.3326E-01  4.3348E-01
  4.3377E-01  4.3393E-01  4.3686E-01  4.3699E-01  4.3724E-01  4.3752E-01
  4.4557E-01  4.5156E-01  4.5178E-01  4.5195E-01  4.5243E-01  4.5288E-01
  4.5330E-01  4.5393E-01  4.5457E-01  4.5708E-01  4.6271E-01  4.6696E-01
  4.7081E-01  4.7559E-01  4.7591E-01  4.7727E-01  4.7819E-01  4.7860E-01
  4.8218E-01  4.8295E-01  4.8514E-01  4.9188E-01  4.9424E-01  4.9453E-01
  4.9774E-01  4.9816E-01  5.0004E-01  5.0068E-01  5.0107E-01  5.0107E-01
  5.0201E-01  5.0211E-01  5.0218E-01  5.0238E-01  5.0248E-01  5.0253E-01
  5.0328E-01  5.0350E-01  5.0866E-01  5.0888E-01  5.0900E-01  5.0924E-01
  5.0931E-01  5.1626E-01  5.1852E-01  5.2271E-01  5.2482E-01  5.2503E-01
  5.2549E-01  5.2597E-01  5.2624E-01  5.2830E-01  5.2903E-01  5.2980E-01
  5.3060E-01  5.3065E-01  5.3110E-01  5.3203E-01  5.3250E-01  5.3438E-01
  5.3545E-01  5.3959E-01  5.4203E-01  5.4310E-01  5.4391E-01  5.4583E-01
  5.4881E-01  5.4910E-01  5.5665E-01  5.5747E-01  5.5760E-01  5.5791E-01
  5.5921E-01  5.5941E-01  5.5948E-01  5.6006E-01  5.6013E-01  5.6266E-01
  5.7103E-01  5.7114E-01  5.7132E-01  5.7163E-01  5.7505E-01  5.7588E-01
  5.7621E-01  5.7651E-01  5.7689E-01  5.9317E-01  5.9480E-01  5.9704E-01
  5.9828E-01  6.0194E-01  6.0206E-01  6.0253E-01  6.0305E-01  6.0436E-01
  6.0857E-01  6.0870E-01  6.0880E-01  6.1095E-01  6.1136E-01  6.1475E-01
  6.1594E-01  6.1600E-01  6.1681E-01  6.2242E-01  6.2317E-01  6.2393E-01
  6.2566E-01  6.2721E-01  6.2737E-01  6.2747E-01  6.2970E-01  6.3000E-01
  6.3298E-01  6.3376E-01  6.3870E-01  6.3894E-01  6.3899E-01  6.3938E-01
  6.3945E-01  6.4424E-01  6.4444E-01  6.4448E-01  6.4471E-01  6.4581E-01
  6.4587E-01  6.4664E-01  6.4727E-01  6.4773E-01  6.4799E-01  6.4825E-01
  6.4874E-01  6.5387E-01  6.5407E-01  6.5647E-01  6.6067E-01  6.6107E-01
  6.6164E-01  6.6169E-01  6.6434E-01  6.6620E-01  6.6708E-01  6.6787E-01
  6.6814E-01  6.6843E-01  6.7035E-01  6.7237E-01  6.7275E-01  6.7446E-01
  6.7939E-01  6.8277E-01  6.8317E-01  6.8386E-01  6.8419E-01  6.8491E-01
  6.8760E-01  6.9054E-01  6.9135E-01  6.9187E-01  6.9200E-01  6.9203E-01
  6.9270E-01  6.9990E-01  7.0058E-01  7.0079E-01  7.0099E-01  7.0283E-01
  7.0349E-01  7.0698E-01  7.0750E-01  7.0856E-01  7.0980E-01  7.1079E-01
  7.1377E-01  7.1409E-01  7.1431E-01  7.1436E-01  7.1473E-01  7.1794E-01
  7.1822E-01  7.1827E-01  7.1907E-01  7.1931E-01  7.1972E-01  7.2155E-01
  7.2245E-01  7.2326E-01  7.2360E-01  7.2378E-01  7.2408E-01  7.2493E-01
  7.2526E-01  7.2638E-01  7.2696E-01  7.2957E-01  7.3056E-01  7.3067E-01
  7.3097E-01  7.3241E-01  7.3506E-01  7.3568E-01  7.3646E-01  7.4180E-01
  7.4730E-01  7.4757E-01  7.5018E-01  7.5095E-01  7.6530E-01  7.6605E-01
  7.6616E-01  7.6651E-01  7.6661E-01  7.6693E-01  7.6713E-01  7.6735E-01
  7.6767E-01  7.6792E-01  7.6823E-01  7.7426E-01  7.7434E-01  7.7465E-01
  7.7475E-01  7.7733E-01  7.8241E-01  7.8265E-01  7.8321E-01  7.8380E-01
  7.8420E-01  7.8523E-01  7.8614E-01  7.8634E-01  7.8711E-01  7.9205E-01
  7.9226E-01  7.9489E-01  7.9524E-01  7.9865E-01  8.0181E-01  8.0184E-01
  8.0207E-01  8.0243E-01  8.0555E-01  8.1158E-01  8.1222E-01  8.1411E-01
  8.1508E-01  8.1511E-01  8.2642E-01  8.2717E-01  8.3340E-01  8.3401E-01
  8.3426E-01  8.3625E-01  8.3648E-01  8.3887E-01  8.3929E-01  8.4340E-01
  8.4402E-01  8.4578E-01  8.4711E-01  8.4727E-01  8.4761E-01  8.4912E-01
  8.4973E-01  8.5647E-01  8.5664E-01  8.5679E-01  8.5739E-01  8.7031E-01
  8.7032E-01  8.7106E-01  8.7153E-01  8.7157E-01  8.7187E-01  8.7355E-01
  8.7355E-01  8.7916E-01  8.8249E-01  8.8610E-01  8.8680E-01  8.8689E-01
  8.8694E-01  8.8768E-01  8.8818E-01  8.8871E-01  8.8900E-01  8.9010E-01
  8.9065E-01  8.9308E-01  8.9613E-01  8.9973E-01  9.0997E-01  9.1045E-01
  9.1059E-01  9.1070E-01  9.1103E-01  9.1189E-01  9.1241E-01  9.1607E-01
  9.1700E-01  9.1730E-01  9.1974E-01  9.2058E-01  9.2173E-01  9.2211E-01
  9.2583E-01  9.2888E-01  9.2895E-01  9.2950E-01  9.2960E-01  9.2985E-01
  9.3309E-01  9.3522E-01  9.3545E-01  9.3603E-01  9.3613E-01  9.4161E-01
  9.4175E-01  9.4467E-01  9.4478E-01  9.4586E-01  9.4592E-01  9.4659E-01
  9.4675E-01  9.4710E-01  9.4759E-01  9.4935E-01  9.4957E-01  9.4976E-01
  9.5023E-01  9.5543E-01  9.5562E-01  9.5762E-01  9.5764E-01  9.5796E-01
  9.6030E-01  9.6078E-01  9.6092E-01  9.6153E-01  9.6167E-01  9.6261E-01
  9.6677E-01  9.6740E-01  9.6802E-01  9.7282E-01  9.7363E-01  9.7576E-01
  9.7600E-01  9.7613E-01  9.7621E-01  9.7993E-01  9.8007E-01  9.8071E-01
  9.8087E-01  9.8165E-01  9.8196E-01  9.8373E-01  9.8873E-01  9.9133E-01
  9.9396E-01  9.9454E-01  9.9918E-01  1.0007E+00  1.0015E+00  1.0033E+00
  1.0036E+00  1.0042E+00  1.0043E+00  1.0050E+00  1.0095E+00  1.0119E+00
  1.0122E+00  1.0140E+00  1.0148E+00  1.0155E+00  1.0156E+00  1.0167E+00
  1.0169E+00  1.0172E+00  1.0218E+00  1.0225E+00  1.0238E+00  1.0270E+00
  1.0272E+00  1.0293E+00  1.0301E+00  1.0306E+00  1.0311E+00  1.0313E+00
  1.0318E+00  1.0321E+00  1.0334E+00  1.0334E+00  1.0358E+00  1.0362E+00
  1.0364E+00  1.0389E+00  1.0444E+00  1.0458E+00  1.0460E+00  1.0462E+00
  1.0464E+00  1.0465E+00  1.0468E+00  1.0472E+00  1.0475E+00  1.0497E+00
  1.0505E+00  1.0507E+00  1.0511E+00  1.0512E+00  1.0516E+00  1.0519E+00
  1.0548E+00  1.0554E+00  1.0578E+00  1.0630E+00  1.0632E+00  1.0633E+00
  1.0637E+00  1.0640E+00  1.0686E+00  1.0686E+00  1.0688E+00  1.0690E+00
  1.0697E+00  1.0705E+00  1.0727E+00  1.0731E+00  1.0772E+00  1.0783E+00
  1.0785E+00  1.0807E+00  1.0811E+00  1.0853E+00  1.0888E+00  1.0893E+00
  1.0903E+00  1.0903E+00  1.0911E+00  1.0942E+00  1.0945E+00  1.0974E+00
  1.0974E+00  1.0991E+00  1.0993E+00  1.0996E+00  1.0999E+00  1.1001E+00
  1.1009E+00  1.1025E+00  1.1032E+00  1.1032E+00  1.1047E+00  1.1053E+00
  1.1055E+00  1.1058E+00  1.1059E+00  1.1106E+00  1.1196E+00  1.1242E+00
  1.1293E+00  1.1322E+00  1.1328E+00  1.1374E+00  1.1391E+00  1.1395E+00
  1.1399E+00  1.1402E+00  1.1439E+00  1.1452E+00  1.1459E+00  1.1464E+00
  1.1465E+00  1.1468E+00  1.1472E+00  1.1474E+00  1.1478E+00  1.1502E+00
  1.1505E+00  1.1556E+00  1.1563E+00  1.1628E+00  1.1650E+00  1.1653E+00
  1.1654E+00  1.1654E+00  1.1657E+00  1.1668E+00  1.1689E+00  1.1695E+00
  1.1707E+00  1.1735E+00  1.1749E+00  1.1776E+00  1.1812E+00  1.1812E+00
  1.1815E+00  1.1838E+00  1.1841E+00  1.1846E+00  1.1849E+00  1.1896E+00
  1.1946E+00  1.1951E+00  1.1955E+00  1.1957E+00  1.1964E+00  1.1976E+00
  1.1992E+00  1.1996E+00  1.2036E+00  1.2040E+00  1.2052E+00  1.2054E+00
  1.2057E+00  1.2058E+00  1.2072E+00  1.2075E+00  1.2078E+00  1.2092E+00
  1.2114E+00  1.2128E+00  1.2129E+00  1.2239E+00  1.2247E+00  1.2265E+00
  1.2267E+00  1.2300E+00  1.2325E+00  1.2328E+00  1.2333E+00  1.2337E+00
  1.2339E+00  1.2346E+00  1.2463E+00  1.2470E+00  1.2501E+00  1.2505E+00
  1.2507E+00  1.2508E+00  1.2514E+00  1.2516E+00  1.2526E+00  1.2537E+00
  1.2547E+00  1.2552E+00  1.2595E+00  1.2654E+00  1.2657E+00  1.2659E+00
  1.2660E+00  1.2662E+00  1.2693E+00  1.2695E+00  1.2704E+00  1.2714E+00
  1.2720E+00  1.2750E+00  1.2778E+00  1.2789E+00  1.2796E+00  1.2796E+00
  1.2799E+00  1.2800E+00  1.2806E+00  1.2812E+00  1.2816E+00  1.2836E+00
  1.2837E+00  1.2845E+00  1.2854E+00  1.2856E+00  1.2860E+00  1.2864E+00
  1.2868E+00  1.2883E+00  1.2883E+00  1.2906E+00  1.2908E+00  1.2916E+00
  1.2924E+00  1.2938E+00  1.2940E+00  1.2941E+00  1.2973E+00  1.2981E+00
  1.2987E+00  1.2997E+00  1.3013E+00  1.3014E+00  1.3022E+00  1.3047E+00
  1.3047E+00  1.3088E+00  1.3117E+00  1.3161E+00  1.3162E+00  1.3170E+00
  1.3180E+00  1.3184E+00  1.3189E+00  1.3197E+00  1.3198E+00  1.3222E+00
  1.3223E+00  1.3224E+00  1.3236E+00  1.3300E+00  1.3307E+00  1.3339E+00
  1.3340E+00  1.3352E+00  1.3354E+00  1.3363E+00  1.3366E+00  1.3389E+00
  1.3389E+00  1.3404E+00  1.3419E+00  1.3420E+00  1.3423E+00  1.3427E+00
  1.3432E+00  1.3443E+00  1.3444E+00  1.3445E+00  1.3446E+00  1.3514E+00
  1.3515E+00  1.3550E+00  1.3589E+00  1.3589E+00  1.3589E+00  1.3593E+00
  1.3594E+00  1.3600E+00  1.3607E+00  1.3622E+00  1.3623E+00  1.3662E+00
  1.3666E+00  1.3684E+00  1.3690E+00  1.3704E+00  1.3705E+00  1.3706E+00
  1.3708E+00  1.3708E+00  1.3743E+00  1.3746E+00  1.3752E+00  1.3771E+00
  1.3783E+00  1.3790E+00  1.3805E+00  1.3864E+00  1.3866E+00  1.3892E+00
  1.3898E+00  1.3899E+00  1.3900E+00  1.3914E+00  1.3936E+00  1.3939E+00
  1.3941E+00  1.3954E+00  1.3973E+00  1.4023E+00  1.4029E+00  1.4033E+00
  1.4034E+00  1.4037E+00  1.4042E+00  1.4072E+00  1.4082E+00  1.4082E+00
  1.4084E+00  1.4087E+00  1.4097E+00  1.4119E+00  1.4121E+00  1.4145E+00
  1.4147E+00  1.4152E+00  1.4157E+00  1.4159E+00  1.4169E+00  1.4176E+00
  1.4183E+00  1.4186E+00  1.4186E+00  1.4191E+00  1.4218E+00  1.4219E+00
  1.4220E+00  1.4232E+00  1.4252E+00  1.4253E+00  1.4256E+00  1.4266E+00
  1.4270E+00  1.4322E+00  1.4323E+00  1.4353E+00  1.4371E+00  1.4380E+00
  1.4382E+00  1.4395E+00  1.4399E+00  1.4400E+00  1.4403E+00  1.4405E+00
  1.4407E+00  1.4415E+00  1.4544E+00  1.4546E+00  1.4553E+00  1.4556E+00
  1.4562E+00  1.4579E+00  1.4580E+00  1.4592E+00  1.4593E+00  1.4597E+00
  1.4598E+00  1.4598E+00  1.4599E+00  1.4607E+00  1.4620E+00  1.4665E+00
  1.4666E+00  1.4669E+00  1.4678E+00  1.4680E+00  1.4681E+00  1.4685E+00
  1.4688E+00  1.4693E+00  1.4695E+00  1.4698E+00  1.4701E+00  1.4710E+00
  1.4715E+00  1.4730E+00  1.4732E+00  1.4762E+00  1.4794E+00  1.4795E+00
  1.4799E+00  1.4801E+00  1.4828E+00  1.4830E+00  1.4834E+00  1.4842E+00
  1.4852E+00  1.4860E+00  1.4906E+00  1.4947E+00  1.4951E+00  1.4963E+00
  1.4969E+00  1.4970E+00  1.4970E+00  1.4971E+00  1.4974E+00  1.4975E+00
  1.4978E+00  1.4983E+00  1.4984E+00  1.4985E+00  1.5055E+00  1.5089E+00
  1.5099E+00  1.5104E+00  1.5105E+00  1.5110E+00  1.5118E+00  1.5143E+00
  1.5163E+00  1.5209E+00  1.5238E+00  1.5253E+00  1.5318E+00  1.5325E+00
  1.5338E+00  1.5341E+00  1.5346E+00  1.5352E+00  1.5362E+00  1.5365E+00
  1.5371E+00  1.5372E+00  1.5373E+00  1.5380E+00  1.5395E+00  1.5395E+00
  1.5399E+00  1.5400E+00  1.5400E+00  1.5406E+00  1.5408E+00  1.5415E+00
  1.5419E+00  1.5420E+00  1.5423E+00  1.5426E+00  1.5426E+00  1.5429E+00
  1.5429E+00  1.5429E+00  1.5431E+00  1.5437E+00  1.5441E+00  1.5454E+00
  1.5465E+00  1.5497E+00  1.5549E+00  1.5584E+00  1.5591E+00  1.5603E+00
  1.5607E+00  1.5609E+00  1.5653E+00  1.5659E+00  1.5693E+00  1.5714E+00
  1.5719E+00  1.5728E+00  1.5734E+00  1.5783E+00  1.5785E+00  1.5788E+00
  1.5790E+00  1.5796E+00  1.5804E+00  1.5844E+00  1.5846E+00  1.5849E+00
  1.5852E+00  1.5875E+00  1.5881E+00  1.5883E+00  1.5894E+00  1.5894E+00
  1.5895E+00  1.5898E+00  1.5901E+00  1.5911E+00  1.5915E+00  1.5943E+00
  1.5970E+00  1.5976E+00  1.6034E+00  1.6041E+00  1.6042E+00  1.6042E+00
  1.6044E+00  1.6069E+00  1.6072E+00  1.6075E+00  1.6086E+00  1.6094E+00
  1.6098E+00  1.6099E+00  1.6100E+00  1.6105E+00  1.6106E+00  1.6106E+00
  1.6108E+00  1.6114E+00  1.6121E+00  1.6127E+00  1.6137E+00  1.6159E+00
  1.6161E+00  1.6188E+00  1.6189E+00  1.6193E+00  1.6201E+00  1.6273E+00
  1.6276E+00  1.6289E+00  1.6297E+00  1.6302E+00  1.6321E+00  1.6337E+00
  1.6354E+00  1.6367E+00  1.6389E+00  1.6403E+00  1.6409E+00  1.6416E+00
  1.6439E+00  1.6444E+00  1.6478E+00  1.6516E+00  1.6518E+00  1.6519E+00
  1.6522E+00  1.6627E+00  1.6633E+00  1.6635E+00  1.6638E+00  1.6646E+00
  1.6683E+00  1.6689E+00  1.6692E+00  1.6718E+00  1.6722E+00  1.6730E+00
  1.6764E+00  1.6798E+00  1.6802E+00  1.6843E+00  1.6867E+00  1.6875E+00
  1.6876E+00  1.6883E+00  1.6887E+00  1.6893E+00  1.6901E+00  1.6905E+00
  1.6918E+00  1.6936E+00  1.6956E+00  1.6963E+00  1.6970E+00  1.6977E+00
  1.6991E+00  1.7004E+00  1.7008E+00  1.7008E+00  1.7014E+00  1.7025E+00
  1.7028E+00  1.7029E+00  1.7029E+00  1.7030E+00  1.7032E+00  1.7034E+00
  1.7065E+00  1.7068E+00  1.7069E+00  1.7072E+00  1.7074E+00  1.7084E+00
  1.7123E+00  1.7124E+00  1.7127E+00  1.7134E+00  1.7142E+00  1.7157E+00
  1.7159E+00  1.7161E+00  1.7171E+00  1.7172E+00  1.7217E+00  1.7225E+00
  1.7281E+00  1.7336E+00  1.7373E+00  1.7377E+00  1.7393E+00  1.7426E+00
  1.7476E+00  1.7478E+00  1.7498E+00  1.7499E+00  1.7508E+00  1.7522E+00
  1.7524E+00  1.7526E+00  1.7539E+00  1.7564E+00  1.7574E+00  1.7580E+00
  1.7589E+00  1.7610E+00  1.7615E+00  1.7617E+00  1.7624E+00  1.7642E+00
  1.7646E+00  1.7648E+00  1.7651E+00  1.7659E+00  1.7670E+00  1.7681E+00
  1.7683E+00  1.7686E+00  1.7687E+00  1.7694E+00  1.7738E+00  1.7762E+00
  1.7778E+00  1.7786E+00  1.7808E+00  1.7840E+00  1.7841E+00  1.7850E+00
  1.7852E+00  1.7868E+00  1.7868E+00  1.7869E+00  1.7900E+00  1.7970E+00
  1.7983E+00  1.8031E+00  1.8101E+00  1.8105E+00  1.8108E+00  1.8147E+00
  1.8165E+00  1.8173E+00  1.8177E+00  1.8227E+00  1.8237E+00  1.8242E+00
 prteigrs : prtvol=0 or 1, do not print more k-points.



Result for kinetic energy density :

--------------------------------------------------------------------------------
 Total kinetic energy density [Ha/Bohr^3]
      Maximum=    3.0083E+00  at reduced coord.    0.4259    0.9074    0.0087
      Minimum=    8.2757E-08  at reduced coord.    0.2407    0.6481    0.0035
   Integrated=    1.7161E+02
--------------------------------------------------------------------------------

--- !ResultsGS
iteration_state: {dtset: 2, }
comment   : Summary of ground state results
lattice_vectors:
- [  7.9423772,   0.0000000,   0.0000000, ]
- [  0.0000000,   8.2625280,   0.0000000, ]
- [  0.0000000,   0.0000000,  88.8171282, ]
lattice_lengths: [   7.94238,    8.26253,   88.81713, ]
lattice_angles: [ 90.000,  90.000,  90.000, ] # degrees, (23, 13, 12)
lattice_volume:   5.8285453E+03
convergence: {deltae:  0.000E+00, res2:  0.000E+00, residm:  6.455E-19, diffor:  0.000E+00, }
etotal    :  -1.69418180E+02
entropy   :   0.00000000E+00
fermie    :   1.22453219E-02
cartesian_stress_tensor: null
pressure_GPa: null
xred      :
- [  4.3341E-01,   4.1212E-01,   3.8034E-01,  C]
- [  5.6659E-01,   5.8788E-01,   6.1966E-01,  C]
- [  9.3341E-01,   5.8788E-01,   6.1966E-01,  C]
- [  6.6586E-02,   4.1212E-01,   3.8034E-01,  C]
- [  6.6586E-02,   9.1212E-01,   6.1966E-01,  C]
- [  9.3341E-01,   8.7881E-02,   3.8034E-01,  C]
- [  5.6659E-01,   8.7881E-02,   3.8034E-01,  C]
- [  4.3341E-01,   9.1212E-01,   6.1966E-01,  C]
- [  4.3745E-01,   4.1688E-01,   4.3320E-01,  C]
- [  5.6255E-01,   5.8312E-01,   5.6680E-01,  C]
[...]
          chkprim           0
     densfor_pred           6
           diemac      1.20000000E+01
             ecut      5.00000000E+01 Hartree
-          fftalg         312
           getden           1
      gw_icutcoul           2
             iscf          -2
           istwfk        1    0    0    1    0    0    0    0    0    0
                         0    0    1    0    0    1
              ixc     -208012
           jdtset        2
              kpt      0.00000000E+00  0.00000000E+00  0.00000000E+00
                       1.66666667E-01  0.00000000E+00  0.00000000E+00
                       3.33333333E-01  0.00000000E+00  0.00000000E+00
                       5.00000000E-01  0.00000000E+00  0.00000000E+00
                       0.00000000E+00  1.66666667E-01  0.00000000E+00
                       1.66666667E-01  1.66666667E-01  0.00000000E+00
                       3.33333333E-01  1.66666667E-01  0.00000000E+00
                       5.00000000E-01  1.66666667E-01  0.00000000E+00
                       0.00000000E+00  3.33333333E-01  0.00000000E+00
                       1.66666667E-01  3.33333333E-01  0.00000000E+00
                       3.33333333E-01  3.33333333E-01  0.00000000E+00
                       5.00000000E-01  3.33333333E-01  0.00000000E+00
                       0.00000000E+00  5.00000000E-01  0.00000000E+00
                       1.66666667E-01  5.00000000E-01  0.00000000E+00
                       3.33333333E-01  5.00000000E-01  0.00000000E+00
                       5.00000000E-01  5.00000000E-01  0.00000000E+00
         kptrlatt        6    0    0      0    6    0      0    0    1
          kptrlen      4.76542633E+01
P           mkmem           3
            natom          48
            nband        2568
           nbdbuf         321
           ndtset           1
            ngfft          54      54     576
             nkpt          16
-          npband           4
-           npfft          18
-        np_spkpt           7
            nstep         100
             nsym           8
           ntypat           2
           ortalg          -2
        paral_kgb           1
          prtkden           1
          spgroup          57
           symrel      1  0  0   0  1  0   0  0  1      -1  0  0   0 -1  0   0  0 -1
                      -1  0  0   0  1  0   0  0 -1       1  0  0   0 -1  0   0  0  1
                      -1  0  0   0 -1  0   0  0  1       1  0  0   0  1  0   0  0 -1
                       1  0  0   0 -1  0   0  0 -1      -1  0  0   0  1  0   0  0  1
            tnons      0.0000000  0.0000000  0.0000000    -0.0000000 -0.0000000  0.0000000
                       0.5000000  0.5000000  0.0000000     0.5000000  0.5000000  0.0000000
                      -0.0000000  0.5000000  0.0000000     0.0000000  0.5000000  0.0000000
                       0.5000000 -0.0000000  0.0000000     0.5000000  0.0000000  0.0000000
           tolsym      1.00000000E-04
           tolwfr      1.00000000E-18
            typat      1  1  1  1  1  1  1  1  1  1  1  1  1  1  1  1  1  1  1  1
                       1  1  1  1  1  1  1  1  1  1  1  1  1  1  1  1  1  1  1  1
                       2  2  2  2  2  2  2  2
          usekden           1
          vcutgeo      1.0000000  1.0000000  0.0000000
         wfoptalg         114
              wtk        0.02778    0.05556    0.05556    0.02778    0.05556    0.11111
                         0.11111    0.05556    0.05556    0.11111    0.11111    0.05556
                         0.02778    0.05556    0.05556    0.02778
           xangst      1.8216081831E+00  1.8019249212E+00  1.7875794547E+01
                       2.3813168180E+00  2.5704165669E+00  2.9124205453E+01
                       3.9230706837E+00  2.5704165669E+00  2.9124205453E+01
                       2.7985431742E-01  1.8019249212E+00  1.7875794547E+01
                       2.7985431742E-01  3.9880956653E+00  2.9124205453E+01
                       3.9230706837E+00  3.8424582280E-01  1.7875794547E+01
                       2.3813168180E+00  3.8424582280E-01  1.7875794547E+01
                       1.8216081831E+00  3.9880956653E+00  2.9124205453E+01
                       1.8385707832E+00  1.8227363262E+00  2.0360491890E+01
                       2.3643542180E+00  2.5496051620E+00  2.6639508110E+01
                       3.9400332837E+00  2.5496051620E+00  2.6639508110E+01
                       2.6289171740E-01  1.8227363262E+00  2.0360491890E+01
                       2.6289171740E-01  4.0089070702E+00  2.6639508110E+01
                       3.9400332837E+00  3.6343441790E-01  2.0360491890E+01
                       2.3643542180E+00  3.6343441790E-01  2.0360491890E+01
                       1.8385707832E+00  4.0089070702E+00  2.6639508110E+01
                       1.8379122792E+00  1.8215995655E+00  2.2872056793E+01
                       2.3650127219E+00  2.5507419226E+00  2.4127943207E+01
                       3.9393747798E+00  2.5507419226E+00  2.4127943207E+01
                       2.6355022135E-01  1.8215995655E+00  2.2872056793E+01
                       2.6355022135E-01  4.0077703096E+00  2.4127943207E+01
                       3.9393747798E+00  3.6457117855E-01  2.2872056793E+01
                       2.3650127219E+00  3.6457117855E-01  2.2872056793E+01
                       1.8379122792E+00  4.0077703096E+00  2.4127943207E+01
                       1.8378654249E+00  1.8215979835E+00  2.5383749760E+01
                       2.3650595763E+00  2.5507435046E+00  2.1616250240E+01
                       3.9393279254E+00  2.5507435046E+00  2.1616250240E+01
                       2.6359707569E-01  1.8215979835E+00  2.5383749760E+01
                       2.6359707569E-01  4.0077687276E+00  2.1616250240E+01
                       3.9393279254E+00  3.6457276051E-01  2.5383749760E+01
                       2.3650595763E+00  3.6457276051E-01  2.5383749760E+01
                       1.8378654249E+00  4.0077687276E+00  2.1616250240E+01
                       1.8372184378E+00  1.8186815473E+00  2.7898834038E+01
                       2.3657065633E+00  2.5536599408E+00  1.9101165962E+01
                       3.9386809384E+00  2.5536599408E+00  1.9101165962E+01
                       2.6424406273E-01  1.8186815473E+00  2.7898834038E+01
                       2.6424406273E-01  4.0048522914E+00  1.9101165962E+01
                       3.9386809384E+00  3.6748919671E-01  2.7898834038E+01
                       2.3657065633E+00  3.6748919671E-01  2.7898834038E+01
                       1.8372184378E+00  4.0048522914E+00  1.9101165962E+01
                       2.1602651089E+00  2.3011660692E+00  1.6960737322E+01
                       2.0426598923E+00  2.0711754189E+00  3.0039262678E+01
                       5.8802608284E-02  2.0711754189E+00  3.0039262678E+01
                       4.1441223928E+00  2.3011660692E+00  1.6960737322E+01
                       4.1441223928E+00  1.1499532513E-01  3.0039262678E+01
                       5.8802608284E-02  4.2573461630E+00  1.6960737322E+01
                       2.0426598923E+00  4.2573461630E+00  1.6960737322E+01
                       2.1602651089E+00  1.1499532513E-01  3.0039262678E+01
            xcart      3.4423405876E+00  3.4051446132E+00  3.3780356102E+01
                       4.5000366216E+00  4.8573833588E+00  5.5036772144E+01
                       7.4135291922E+00  4.8573833588E+00  5.5036772144E+01
                       5.2884801703E-01  3.4051446132E+00  3.3780356102E+01
                       5.2884801703E-01  7.5364085992E+00  5.5036772144E+01
                       7.4135291922E+00  7.2611937280E-01  3.3780356102E+01
                       4.5000366216E+00  7.2611937280E-01  3.3780356102E+01
                       3.4423405876E+00  7.5364085992E+00  5.5036772144E+01
                       3.4743952561E+00  3.4444724689E+00  3.8475753603E+01
                       4.4679819531E+00  4.8180555031E+00  5.0341374643E+01
                       7.4455838607E+00  4.8180555031E+00  5.0341374643E+01
                       4.9679334849E-01  3.4444724689E+00  3.8475753603E+01
                       4.9679334849E-01  7.5757364549E+00  5.0341374643E+01
                       7.4455838607E+00  6.8679151709E-01  3.8475753603E+01
                       4.4679819531E+00  6.8679151709E-01  3.8475753603E+01
                       3.4743952561E+00  7.5757364549E+00  5.0341374643E+01
                       3.4731508640E+00  3.4423243026E+00  4.3221923434E+01
                       4.4692263452E+00  4.8202036694E+00  4.5595204812E+01
                       7.4443394686E+00  4.8202036694E+00  4.5595204812E+01
                       4.9803774062E-01  3.4423243026E+00  4.3221923434E+01
                       4.9803774062E-01  7.5735882886E+00  4.5595204812E+01
                       7.4443394686E+00  6.8893968340E-01  4.3221923434E+01
                       4.4692263452E+00  6.8893968340E-01  4.3221923434E+01
                       3.4731508640E+00  7.5735882886E+00  4.5595204812E+01
                       3.4730623221E+00  3.4423213131E+00  4.7968335272E+01
                       4.4693148871E+00  4.8202066589E+00  4.0848792974E+01
                       7.4442509267E+00  4.8202066589E+00  4.0848792974E+01
                       4.9812628248E-01  3.4423213131E+00  4.7968335272E+01
                       4.9812628248E-01  7.5735852991E+00  4.0848792974E+01
                       7.4442509267E+00  6.8894267287E-01  4.7968335272E+01
                       4.4693148871E+00  6.8894267287E-01  4.7968335272E+01
                       3.4730623221E+00  7.5735852991E+00  4.0848792974E+01
                       3.4718396938E+00  3.4368100474E+00  5.2721155759E+01
                       4.4705375154E+00  4.8257179246E+00  3.6095972487E+01
                       7.4430282984E+00  4.8257179246E+00  3.6095972487E+01
                       4.9934891081E-01  3.4368100474E+00  5.2721155759E+01
                       4.9934891081E-01  7.5680740334E+00  3.6095972487E+01
                       7.4430282984E+00  6.9445393857E-01  5.2721155759E+01
                       4.4705375154E+00  6.9445393857E-01  5.2721155759E+01
                       3.4718396938E+00  7.5680740334E+00  3.6095972487E+01
                       4.0823094302E+00  4.3485736570E+00  3.2051148550E+01
                       3.8600677790E+00  3.9139543149E+00  5.6765979696E+01
                       1.1112082556E-01  3.9139543149E+00  5.6765979696E+01
                       7.8312563836E+00  4.3485736570E+00  3.2051148550E+01
                       7.8312563836E+00  2.1730967105E-01  5.6765979696E+01
                       1.1112082556E-01  8.0452183009E+00  3.2051148550E+01
                       3.8600677790E+00  8.0452183009E+00  3.2051148550E+01
                       4.0823094302E+00  2.1730967105E-01  5.6765979696E+01
             xred      4.3341439180E-01  4.1211898159E-01  3.8033605420E-01
                       5.6658560820E-01  5.8788101841E-01  6.1966394580E-01
                       9.3341439180E-01  5.8788101841E-01  6.1966394580E-01
                       6.6585608200E-02  4.1211898159E-01  3.8033605420E-01
                       6.6585608200E-02  9.1211898159E-01  6.1966394580E-01
                       9.3341439180E-01  8.7881018408E-02  3.8033605420E-01
                       5.6658560820E-01  8.7881018408E-02  3.8033605420E-01
                       4.3341439180E-01  9.1211898159E-01  6.1966394580E-01
                       4.3745029537E-01  4.1687876647E-01  4.3320195510E-01
                       5.6254970463E-01  5.8312123353E-01  5.6679804490E-01
                       9.3745029537E-01  5.8312123353E-01  5.6679804490E-01
                       6.2549704629E-02  4.1687876647E-01  4.3320195510E-01
                       6.2549704629E-02  9.1687876647E-01  5.6679804490E-01
                       9.3745029537E-01  8.3121233528E-02  4.3320195510E-01
                       5.6254970463E-01  8.3121233528E-02  4.3320195510E-01
                       4.3745029537E-01  9.1687876647E-01  5.6679804490E-01
                       4.3729361783E-01  4.1661877748E-01  4.8663950623E-01
                       5.6270638217E-01  5.8338122252E-01  5.1336049377E-01
                       9.3729361783E-01  5.8338122252E-01  5.1336049377E-01
                       6.2706382170E-02  4.1661877748E-01  4.8663950623E-01
                       6.2706382170E-02  9.1661877748E-01  5.1336049377E-01
                       9.3729361783E-01  8.3381222519E-02  4.8663950623E-01
                       5.6270638217E-01  8.3381222519E-02  4.8663950623E-01
                       4.3729361783E-01  9.1661877748E-01  5.1336049377E-01
                       4.3728246980E-01  4.1661841567E-01  5.4007978212E-01
                       5.6271753020E-01  5.8338158433E-01  4.5992021788E-01
                       9.3728246980E-01  5.8338158433E-01  4.5992021788E-01
                       6.2717530200E-02  4.1661841567E-01  5.4007978212E-01
                       6.2717530200E-02  9.1661841567E-01  4.5992021788E-01
                       9.3728246980E-01  8.3381584329E-02  5.4007978212E-01
                       5.6271753020E-01  8.3381584329E-02  5.4007978212E-01
                       4.3728246980E-01  9.1661841567E-01  4.5992021788E-01
                       4.3712853247E-01  4.1595139636E-01  5.9359221358E-01
                       5.6287146753E-01  5.8404860364E-01  4.0640778642E-01
                       9.3712853247E-01  5.8404860364E-01  4.0640778642E-01
                       6.2871467529E-02  4.1595139636E-01  5.9359221358E-01
                       6.2871467529E-02  9.1595139636E-01  4.0640778642E-01
                       9.3712853247E-01  8.4048603639E-02  5.9359221358E-01
                       5.6287146753E-01  8.4048603639E-02  5.9359221358E-01
                       4.3712853247E-01  9.1595139636E-01  4.0640778642E-01
                       5.1399087737E-01  5.2630062758E-01  3.6086675153E-01
                       4.8600912263E-01  4.7369937242E-01  6.3913324847E-01
                       1.3990877369E-02  4.7369937242E-01  6.3913324847E-01
                       9.8600912263E-01  5.2630062758E-01  3.6086675153E-01
                       9.8600912263E-01  2.6300627578E-02  6.3913324847E-01
                       1.3990877369E-02  9.7369937242E-01  3.6086675153E-01
                       4.8600912263E-01  9.7369937242E-01  3.6086675153E-01
                       5.1399087737E-01  2.6300627578E-02  6.3913324847E-01
            znucl        6.00000    1.00000

================================================================================


- Timing analysis has been suppressed with timopt=0



================================================================================

 Suggested references for the acknowledgment of ABINIT usage.

 The users of ABINIT have little formal obligations with respect to the ABINIT group
 (those specified in the GNU General Public License, http://www.gnu.org/copyleft/gpl.txt).
 However, it is common practice in the scientific literature,
 to acknowledge the efforts of people that have made the research possible.
 In this spirit, please find below suggested citations of work written by ABINIT developers,
 corresponding to implementations inside of ABINIT that you have used in the present run.
 Note also that it will be of great value to readers of publications presenting these results,
 to read papers enabling them to understand the theoretical formalism and details
 of the ABINIT implementation.
 For information on why they are suggested, see also https://docs.abinit.org/theory/acknowledgments.
-
- [1] Libxc: A library of exchange and correlation functionals for density functional theory.
- M.A.L. Marques, M.J.T. Oliveira, T. Burnus, Computer Physics Communications 183, 2227 (2012).
- Comment: to be cited when LibXC is used (negative value of ixc)
- Strong suggestion to cite this paper.
- DOI and bibtex: see https://docs.abinit.org/theory/bibliography/#marques2012
-
- [2] Large scale ab initio calculations based on three levels of parallelization
- F. Bottin, S. Leroux, A. Knyazev, G. Zerah, Comput. Mat. Science 42, 329, (2008).
- Comment: in case LOBPCG algorithm is used (wfoptalg=4/14/114).
- Strong suggestion to cite this paper in your publications.
- This paper is also available at http://www.arxiv.org/abs/0707.3405
- DOI and bibtex: see https://docs.abinit.org/theory/bibliography/#bottin2008
-
- [3] The Abinit project: Impact, environment and recent developments.
- Computer Phys. Comm. 248, 107042 (2020).
- X.Gonze, B. Amadon, G. Antonius, F.Arnardi, L.Baguet, J.-M.Beuken,
- J.Bieder, F.Bottin, J.Bouchet, E.Bousquet, N.Brouwer, F.Bruneval,
- G.Brunin, T.Cavignac, J.-B. Charraud, Wei Chen, M.Cote, S.Cottenier,
- J.Denier, G.Geneste, Ph.Ghosez, M.Giantomassi, Y.Gillet, O.Gingras,
- D.R.Hamann, G.Hautier, Xu He, N.Helbig, N.Holzwarth, Y.Jia, F.Jollet,
- W.Lafargue-Dit-Hauret, K.Lejaeghere, M.A.L.Marques, A.Martin, C.Martins,
- H.P.C. Miranda, F.Naccarato, K. Persson, G.Petretto, V.Planes, Y.Pouillon,
- S.Prokhorenko, F.Ricci, G.-M.Rignanese, A.H.Romero, M.M.Schmitt, M.Torrent,
- M.J.van Setten, B.Van Troeye, M.J.Verstraete, G.Zerah and J.W.Zwanzig
- Comment: the fifth generic paper describing the ABINIT project.
- Note that a version of this paper, that is not formatted for Computer Phys. Comm. 
- is available at https://www.abinit.org/sites/default/files/ABINIT20.pdf .
- The licence allows the authors to put it on the Web.
- DOI and bibtex: see https://docs.abinit.org/theory/bibliography/#gonze2020
-
- [4] ABINIT: Overview, and focus on selected capabilities
- J. Chem. Phys. 152, 124102 (2020).
- A. Romero, D.C. Allan, B. Amadon, G. Antonius, T. Applencourt, L.Baguet,
- J.Bieder, F.Bottin, J.Bouchet, E.Bousquet, F.Bruneval,
- G.Brunin, D.Caliste, M.Cote,
- J.Denier, C. Dreyer, Ph.Ghosez, M.Giantomassi, Y.Gillet, O.Gingras,
- D.R.Hamann, G.Hautier, F.Jollet, G. Jomard,
- A.Martin, 
- H.P.C. Miranda, F.Naccarato, G.Petretto, N.A. Pike, V.Planes,
- S.Prokhorenko, T. Rangel, F.Ricci, G.-M.Rignanese, M.Royo, M.Stengel, M.Torrent,
- M.J.van Setten, B.Van Troeye, M.J.Verstraete, J.Wiktor, J.W.Zwanziger, and X.Gonze.
- Comment: a global overview of ABINIT, with focus on selected capabilities .
- Note that a version of this paper, that is not formatted for J. Chem. Phys 
- is available at https://www.abinit.org/sites/default/files/ABINIT20_JPC.pdf .
- The licence allows the authors to put it on the Web.
- DOI and bibtex: see https://docs.abinit.org/theory/bibliography/#romero2020
-
- [5] Recent developments in the ABINIT software package.
- Computer Phys. Comm. 205, 106 (2016).
- X.Gonze, F.Jollet, F.Abreu Araujo, D.Adams, B.Amadon, T.Applencourt,
- C.Audouze, J.-M.Beuken, J.Bieder, A.Bokhanchuk, E.Bousquet, F.Bruneval
- D.Caliste, M.Cote, F.Dahm, F.Da Pieve, M.Delaveau, M.Di Gennaro,
- B.Dorado, C.Espejo, G.Geneste, L.Genovese, A.Gerossier, M.Giantomassi,
- Y.Gillet, D.R.Hamann, L.He, G.Jomard, J.Laflamme Janssen, S.Le Roux,
- A.Levitt, A.Lherbier, F.Liu, I.Lukacevic, A.Martin, C.Martins,
- M.J.T.Oliveira, S.Ponce, Y.Pouillon, T.Rangel, G.-M.Rignanese,
- A.H.Romero, B.Rousseau, O.Rubel, A.A.Shukri, M.Stankovski, M.Torrent,
- M.J.Van Setten, B.Van Troeye, M.J.Verstraete, D.Waroquier, J.Wiktor,
- B.Xu, A.Zhou, J.W.Zwanziger.
- Comment: the fourth generic paper describing the ABINIT project.
- Note that a version of this paper, that is not formatted for Computer Phys. Comm. 
- is available at https://www.abinit.org/sites/default/files/ABINIT16.pdf .
- The licence allows the authors to put it on the Web.
- DOI and bibtex: see https://docs.abinit.org/theory/bibliography/#gonze2016
-
- Proc.   0 individual time (sec): cpu=      13665.8  wall=      13708.7

================================================================================

 Calculation completed.
.Delivered   0 WARNINGs and   2 COMMENTs to log file.
+Overall time at end (sec) : cpu=    6908082.1  wall=    6909232.3
