  ABINIT 9.7.2
  
 DeprecationWarning: 

     The files file has been deprecated in Abinit9 and will be removed in Abinit10.
     Use the syntax `abinit t01.abi` where t01.abi is an input with pseudopotentials e.g.

            pseudos = "al.psp8, as.psp8"


  Give name for formatted input file: 
./5H-2110_gw.abi
  Give name for formatted output file:
5H-2110_gw.abo
  Give root name for generic input files:
5H-2110_gw_i
  Give root name for generic output files:
5H-2110_gw_o
  Give root name for generic temporary files:
5H-2110_gw

--- !COMMENT
src_file: m_dtfil.F90
src_line: 1476
message: |
    Output file: 5H-2110_gw.abo already exists.
...


--- !COMMENT
src_file: m_dtfil.F90
src_line: 1500
message: |
    Renaming old: 5H-2110_gw.abo to: 5H-2110_gw.abo0004
...


.Version 9.7.2 of ABINIT 
.(MPI version, prepared for a x86_64_linux_gnu10.3 computer) 

.Copyright (C) 1998-2021 ABINIT group . 
 ABINIT comes with ABSOLUTELY NO WARRANTY.
 It is free software, and you are welcome to redistribute it
 under certain conditions (GNU General Public License,
 see ~abinit/COPYING or http://www.gnu.org/copyleft/gpl.txt).

 ABINIT is a project of the Universite Catholique de Louvain,
 Corning Inc. and other collaborators, see ~abinit/doc/developers/contributors.txt .
 Please read https://docs.abinit.org/theory/acknowledgments for suggested
 acknowledgments of the ABINIT effort.
 For more information, see https://www.abinit.org .

.Starting date : Fri 25 Mar 2022.
- ( at 00h30 )
  

 ++++++++++++++++++++++++++++++++++++++++++++++++++++++++++++++++++++++++++++++

 === Build Information === 
  Version       : 9.7.2
  Build target  : x86_64_linux_gnu10.3
  Build date    : 20220304

 === Compiler Suite === 
  C compiler       : gnu10.3
  C++ compiler     : gnu10.3
  Fortran compiler : gnu10.3
  CFLAGS           : -g -O2 -mtune=native -march=native
  CXXFLAGS         : -g -O2 -mtune=native -march=native
  FCFLAGS          : -g -ffree-line-length-none -fallow-argument-mismatch     -I/opt/cra ...
  FC_LDFLAGS       : 

 === Optimizations === 
  Debug level        : basic
  Optimization level : standard
  Architecture       : amd_epyc

 === Multicore === 
  Parallel build : /opt/cray/pe/mpich/8.1.8/ofi/gnu/9.1
  Parallel I/O   : 
  openMP support : no
  GPU support    : 

 === Connectors / Fallbacks === 
  LINALG flavor  : netlib
  FFT flavor     : fftw3
  HDF5           : yes
  NetCDF         : yes
  NetCDF Fortran : yes
  LibXC          : yes
  Wannier90      : no

 === Experimental features === 
  Exports             : 
  GW double-precision : 

 ++++++++++++++++++++++++++++++++++++++++++++++++++++++++++++++++++++++++++++++


 ++++++++++++++++++++++++++++++++++++++++++++++++++++++++++++++++++++++++++++++
 Default optimizations:
   -O2 -mtune=native -march=native


 Optimizations for 43_ptgroups:
   -O0


 ++++++++++++++++++++++++++++++++++++++++++++++++++++++++++++++++++++++++++++++


 ++++++++++++++++++++++++++++++++++++++++++++++++++++++++++++++++++++++++++++++
 CPP options activated during the build:

                    CC_GNU                   CXX_GNU                    FC_GNU
 
 HAVE_FC_ALLOCATABLE_DT...             HAVE_FC_ASYNC         HAVE_FC_BACKTRACE
 
  HAVE_FC_COMMAND_ARGUMENT      HAVE_FC_COMMAND_LINE        HAVE_FC_CONTIGUOUS
 
           HAVE_FC_CPUTIME              HAVE_FC_EXIT             HAVE_FC_FLUSH
 
             HAVE_FC_GAMMA            HAVE_FC_GETENV   HAVE_FC_IEEE_ARITHMETIC
 
   HAVE_FC_IEEE_EXCEPTIONS          HAVE_FC_INT_QUAD             HAVE_FC_IOMSG
 
     HAVE_FC_ISO_C_BINDING  HAVE_FC_ISO_FORTRAN_2008        HAVE_FC_LONG_LINES
 
        HAVE_FC_MOVE_ALLOC  HAVE_FC_ON_THE_FLY_SHAPE           HAVE_FC_PRIVATE
 
         HAVE_FC_PROTECTED           HAVE_FC_SHIFTLR         HAVE_FC_STREAM_IO
 
            HAVE_FC_SYSTEM                HAVE_FFTW3            HAVE_FFTW3_MPI
 
          HAVE_FORTRAN2003                 HAVE_HDF5        HAVE_LIBPAW_ABINIT
 
      HAVE_LIBTETRA_ABINIT                HAVE_LIBXC        HAVE_LINALG_GEMM3M
 
     HAVE_LINALG_SCALAPACK                  HAVE_MPI                 HAVE_MPI2
 
       HAVE_MPI_IALLGATHER       HAVE_MPI_IALLREDUCE        HAVE_MPI_IALLTOALL
 
       HAVE_MPI_IALLTOALLV           HAVE_MPI_IBCAST         HAVE_MPI_IGATHERV
 
        HAVE_MPI_INTEGER16               HAVE_MPI_IO HAVE_MPI_TYPE_CREATE_S...
 
               HAVE_NETCDF       HAVE_NETCDF_FORTRAN             HAVE_OS_LINUX
 
         HAVE_TIMER_ABINIT                                                      
 ++++++++++++++++++++++++++++++++++++++++++++++++++++++++++++++++++++++++++++++

- input  file    -> ./5H-2110_gw.abi
- output file    -> 5H-2110_gw.abo
- root for input  files -> 5H-2110_gw_i
- root for output files -> 5H-2110_gw_o

-instrng: 145 lines of input have been read from file ./5H-2110_gw.abi


 Please give name of formatted atomic psp file (and finish with a newline character)
 For atom type 1, psp file is ../6c.4.hgh

 Please give name of formatted atomic psp file (and finish with a newline character)
 For atom type 2, psp file is ../1h.1.hgh
  read the values zionpsp=  4.0 , pspcod=   3 , lmax=   1
  read the values zionpsp=  1.0 , pspcod=   3 , lmax=   0

 inpspheads: deduce mpsang = 2, n1xccc = 0.

======================================================= 
 invars1m : enter jdtset= 4

 symlatt: the Bravais lattice is oP (primitive orthorhombic)
  xred   is defined in input file
 ingeo: takes atomic coordinates from input array xred

--- !COMMENT
src_file: m_ingeo.F90
src_line: 900
message: |
    The tolerance on symmetries =   1.000E-04 is bigger than 1.0e-8.
    In order to avoid spurious effects, the atomic coordinates have been
    symmetrized before storing them in the dataset internal variable.
    So, do not be surprised by the fact that your input variables (xcart, xred, ...)
    do not correspond exactly to the ones echoed by ABINIT, the latter being used to do the calculations.
    This is not a problem per se.
    Still, in order to avoid this symmetrization (e.g. for specific debugging/development), decrease tolsym to 1.0e-8 or lower,
    or (much preferred) use input primitive vectors that are accurate to better than 1.0e-8.
    This message will only be printed once, even if there are other datasets where tolsym is bigger than 1.0e-8.
...


 symlatt: the Bravais lattice is oP (primitive orthorhombic)

 symlatt: the Bravais lattice is oP (primitive orthorhombic)
  symspgr: 55 or 57
 symspgr: spgroup=  57  Pb c m   (=D2h^11)

--- !COMMENT
src_file: m_gsphere.F90
src_line: 1644
message: |
    One of the three variables ecuteps, npweps, or nsheps
    must be non-null. Returning.
...


--- !WARNING
src_file: m_mpinfo.F90
src_line: 2495
message: |
    nproc_spkpt= 64 >= nkpt= 16* nsppol= 1
    The number of processors is larger than nkpt*nsppol. This is a waste. (Ignore this warning if this is not a GS run)
...

 For input ecut=  5.000000E+01 best grid ngfft=      54      54     576
       max ecut=  5.188732E+01

 ==== FFT mesh ====
  FFT mesh divisions ........................    54   54  576
  Augmented FFT divisions ...................    55   55  576
  FFT algorithm .............................   312
  FFT cache size ............................    16
 getmpw: optimal value of mpw= 98536

 DATASET    4 : space group Pb c m (# 57); Bravais oP (primitive ortho.)

 getdim_nloc : deduce lmnmax  =   1, lnmax  =   1,
                      lmnmaxso=   4, lnmaxso=   2.
memory: analysis of memory needs
================================================================================
 Values of the parameters that define the memory need for DATASET  4.
     intxc =       0    ionmov =       0      iscf =       7    lmnmax =       1
     lnmax =       1     mgfft =     576  mpssoang =       2    mqgrid =   28272
     natom =      48  nloc_mem =       1    nspden =       1   nspinor =       1
    nsppol =       1      nsym =       8    n1xccc =       0    ntypat =       2
    occopt =       1   xclevel =       2
-    mband =        1926        mffmem =           1         mkmem =           1
       mpw =       98536          nfft =     1679616          nkpt =          16
================================================================================
P This job should need less than                    3554.151 Mbytes of memory.
  Rough estimation (10% accuracy) of disk space for files :
_ WF disk file :  46333.092 Mbytes ; DEN or POT disk file :     12.816 Mbytes.
================================================================================

 Biggest array : f_fftgr(disk), with    205.0333 MBytes.
--------------------------------------------------------------------------------
------------- Echo of variables that govern the present computation ------------
--------------------------------------------------------------------------------
-
- outvars: echo of selected default values                                      
-   iomode0 =  0 , fftalg0 =312 , wfoptalg0 =  0
-
- outvars: echo of global parameters not present in the input file              
-  max_nthreads =    0
-
 -outvars: echo values of preprocessed input variables --------
 
 These variables are accessible in NetCDF format (5H-2110_gw_o_OUT.nc)

            acell      7.9423772092E+00  8.2625279720E+00  8.8817128246E+01 Bohr
              amu      1.20110000E+01  1.00794000E+00
             bdgw          82      85
          chkprim           0
           diemac      1.20000000E+01
             ecut      5.00000000E+01 Hartree
         ecutsigx      2.50000000E+01 Hartree
          ecutwfn      5.00000000E+01 Hartree
-          fftalg         312
           getscr           3
           getwfk           2
      gw_icutcoul           2
           istwfk        1    0    0    1    0    0    0    0    0    0
                         0    0    1    0    0    1
              ixc     -208012
           jdtset        4
              kpt      0.00000000E+00  0.00000000E+00  0.00000000E+00
                       1.66666667E-01  0.00000000E+00  0.00000000E+00
                       3.33333333E-01  0.00000000E+00  0.00000000E+00
                       5.00000000E-01  0.00000000E+00  0.00000000E+00
                       0.00000000E+00  1.66666667E-01  0.00000000E+00
                       1.66666667E-01  1.66666667E-01  0.00000000E+00
                       3.33333333E-01  1.66666667E-01  0.00000000E+00
                       5.00000000E-01  1.66666667E-01  0.00000000E+00
                       0.00000000E+00  3.33333333E-01  0.00000000E+00
                       1.66666667E-01  3.33333333E-01  0.00000000E+00
                       3.33333333E-01  3.33333333E-01  0.00000000E+00
                       5.00000000E-01  3.33333333E-01  0.00000000E+00
                       0.00000000E+00  5.00000000E-01  0.00000000E+00
                       1.66666667E-01  5.00000000E-01  0.00000000E+00
                       3.33333333E-01  5.00000000E-01  0.00000000E+00
                       5.00000000E-01  5.00000000E-01  0.00000000E+00
         kptrlatt        6    0    0      0    6    0      0    0    1
          kptrlen      4.76542633E+01
P           mkmem           1
            natom          48
            nband        1926
           ndtset           1
            ngfft          54      54     576
             nkpt          16
           nkptgw           1
          npwsigx       34733
           npwwfn       98465
            nstep         100
             nsym           8
           ntypat           2
              occ      2.000000  2.000000  2.000000  2.000000  2.000000  2.000000
                       2.000000  2.000000  2.000000  2.000000  2.000000  2.000000
                       2.000000  2.000000  2.000000  2.000000  2.000000  2.000000
                       2.000000  2.000000  2.000000  2.000000  2.000000  2.000000
                       2.000000  2.000000  2.000000  2.000000  2.000000  2.000000
                       2.000000  2.000000  2.000000  2.000000  2.000000  2.000000
                       2.000000  2.000000  2.000000  2.000000  2.000000  2.000000
                       2.000000  2.000000  2.000000  2.000000  2.000000  2.000000
                       2.000000  2.000000  2.000000  2.000000  2.000000  2.000000
                       2.000000  2.000000  2.000000  2.000000  2.000000  2.000000
                       2.000000  2.000000  2.000000  2.000000  2.000000  2.000000
                       2.000000  2.000000  2.000000  2.000000  2.000000  2.000000
                       2.000000  2.000000  2.000000  2.000000  2.000000  2.000000
                       2.000000  2.000000  2.000000  2.000000  2.000000  2.000000
                       0.000000  0.000000  0.000000  0.000000  0.000000  0.000000
                       0.000000  0.000000  0.000000  0.000000  0.000000  0.000000
                       0.000000  0.000000  0.000000  0.000000  0.000000  0.000000
                       0.000000  0.000000  0.000000  0.000000  0.000000  0.000000
                       0.000000  0.000000  0.000000  0.000000  0.000000  0.000000
                       0.000000  0.000000  0.000000  0.000000  0.000000  0.000000
                       0.000000  0.000000  0.000000  0.000000  0.000000  0.000000
                       0.000000  0.000000  0.000000  0.000000  0.000000  0.000000
                       0.000000  0.000000  0.000000  0.000000  0.000000  0.000000
                       0.000000  0.000000  0.000000  0.000000  0.000000  0.000000
                       0.000000  0.000000  0.000000  0.000000  0.000000  0.000000
                       0.000000  0.000000  0.000000  0.000000  0.000000  0.000000
                       0.000000  0.000000  0.000000  0.000000  0.000000  0.000000
                       0.000000  0.000000  0.000000  0.000000  0.000000  0.000000
                       0.000000  0.000000  0.000000  0.000000  0.000000  0.000000
                       0.000000  0.000000  0.000000  0.000000  0.000000  0.000000
                       0.000000  0.000000  0.000000  0.000000  0.000000  0.000000
                       0.000000  0.000000  0.000000  0.000000  0.000000  0.000000
                       0.000000  0.000000  0.000000  0.000000  0.000000  0.000000
                       0.000000  0.000000  0.000000  0.000000  0.000000  0.000000
                       0.000000  0.000000  0.000000  0.000000  0.000000  0.000000
                       0.000000  0.000000  0.000000  0.000000  0.000000  0.000000
                       0.000000  0.000000  0.000000  0.000000  0.000000  0.000000
                       0.000000  0.000000  0.000000  0.000000  0.000000  0.000000
                       0.000000  0.000000  0.000000  0.000000  0.000000  0.000000
                       0.000000  0.000000  0.000000  0.000000  0.000000  0.000000
                       0.000000  0.000000  0.000000  0.000000  0.000000  0.000000
                       0.000000  0.000000  0.000000  0.000000  0.000000  0.000000
                       0.000000  0.000000  0.000000  0.000000  0.000000  0.000000
                       0.000000  0.000000  0.000000  0.000000  0.000000  0.000000
                       0.000000  0.000000  0.000000  0.000000  0.000000  0.000000
                       0.000000  0.000000  0.000000  0.000000  0.000000  0.000000
                       0.000000  0.000000  0.000000  0.000000  0.000000  0.000000
                       0.000000  0.000000  0.000000  0.000000  0.000000  0.000000
                       0.000000  0.000000  0.000000  0.000000  0.000000  0.000000
                       0.000000  0.000000  0.000000  0.000000  0.000000  0.000000
                       0.000000  0.000000  0.000000  0.000000  0.000000  0.000000
                       0.000000  0.000000  0.000000  0.000000  0.000000  0.000000
                       0.000000  0.000000  0.000000  0.000000  0.000000  0.000000
                       0.000000  0.000000  0.000000  0.000000  0.000000  0.000000
                       0.000000  0.000000  0.000000  0.000000  0.000000  0.000000
                       0.000000  0.000000  0.000000  0.000000  0.000000  0.000000
                       0.000000  0.000000  0.000000  0.000000  0.000000  0.000000
                       0.000000  0.000000  0.000000  0.000000  0.000000  0.000000
                       0.000000  0.000000  0.000000  0.000000  0.000000  0.000000
                       0.000000  0.000000  0.000000  0.000000  0.000000  0.000000
                       0.000000  0.000000  0.000000  0.000000  0.000000  0.000000
                       0.000000  0.000000  0.000000  0.000000  0.000000  0.000000
                       0.000000  0.000000  0.000000  0.000000  0.000000  0.000000
                       0.000000  0.000000  0.000000  0.000000  0.000000  0.000000
                       0.000000  0.000000  0.000000  0.000000  0.000000  0.000000
                       0.000000  0.000000  0.000000  0.000000  0.000000  0.000000
                       0.000000  0.000000  0.000000  0.000000  0.000000  0.000000
                       0.000000  0.000000  0.000000  0.000000  0.000000  0.000000
                       0.000000  0.000000  0.000000  0.000000  0.000000  0.000000
                       0.000000  0.000000  0.000000  0.000000  0.000000  0.000000
                       0.000000  0.000000  0.000000  0.000000  0.000000  0.000000
                       0.000000  0.000000  0.000000  0.000000  0.000000  0.000000
                       0.000000  0.000000  0.000000  0.000000  0.000000  0.000000
                       0.000000  0.000000  0.000000  0.000000  0.000000  0.000000
                       0.000000  0.000000  0.000000  0.000000  0.000000  0.000000
                       0.000000  0.000000  0.000000  0.000000  0.000000  0.000000
                       0.000000  0.000000  0.000000  0.000000  0.000000  0.000000
                       0.000000  0.000000  0.000000  0.000000  0.000000  0.000000
                       0.000000  0.000000  0.000000  0.000000  0.000000  0.000000
                       0.000000  0.000000  0.000000  0.000000  0.000000  0.000000
                       0.000000  0.000000  0.000000  0.000000  0.000000  0.000000
                       0.000000  0.000000  0.000000  0.000000  0.000000  0.000000
                       0.000000  0.000000  0.000000  0.000000  0.000000  0.000000
                       0.000000  0.000000  0.000000  0.000000  0.000000  0.000000
                       0.000000  0.000000  0.000000  0.000000  0.000000  0.000000
                       0.000000  0.000000  0.000000  0.000000  0.000000  0.000000
                       0.000000  0.000000  0.000000  0.000000  0.000000  0.000000
                       0.000000  0.000000  0.000000  0.000000  0.000000  0.000000
                       0.000000  0.000000  0.000000  0.000000  0.000000  0.000000
                       0.000000  0.000000  0.000000  0.000000  0.000000  0.000000
                       0.000000  0.000000  0.000000  0.000000  0.000000  0.000000
                       0.000000  0.000000  0.000000  0.000000  0.000000  0.000000
                       0.000000  0.000000  0.000000  0.000000  0.000000  0.000000
                       0.000000  0.000000  0.000000  0.000000  0.000000  0.000000
                       0.000000  0.000000  0.000000  0.000000  0.000000  0.000000
                       0.000000  0.000000  0.000000  0.000000  0.000000  0.000000
                       0.000000  0.000000  0.000000  0.000000  0.000000  0.000000
                       0.000000  0.000000  0.000000  0.000000  0.000000  0.000000
                       0.000000  0.000000  0.000000  0.000000  0.000000  0.000000
                       0.000000  0.000000  0.000000  0.000000  0.000000  0.000000
                       0.000000  0.000000  0.000000  0.000000  0.000000  0.000000
                       0.000000  0.000000  0.000000  0.000000  0.000000  0.000000
                       0.000000  0.000000  0.000000  0.000000  0.000000  0.000000
                       0.000000  0.000000  0.000000  0.000000  0.000000  0.000000
                       0.000000  0.000000  0.000000  0.000000  0.000000  0.000000
                       0.000000  0.000000  0.000000  0.000000  0.000000  0.000000
                       0.000000  0.000000  0.000000  0.000000  0.000000  0.000000
                       0.000000  0.000000  0.000000  0.000000  0.000000  0.000000
                       0.000000  0.000000  0.000000  0.000000  0.000000  0.000000
                       0.000000  0.000000  0.000000  0.000000  0.000000  0.000000
                       0.000000  0.000000  0.000000  0.000000  0.000000  0.000000
                       0.000000  0.000000  0.000000  0.000000  0.000000  0.000000
                       0.000000  0.000000  0.000000  0.000000  0.000000  0.000000
                       0.000000  0.000000  0.000000  0.000000  0.000000  0.000000
                       0.000000  0.000000  0.000000  0.000000  0.000000  0.000000
                       0.000000  0.000000  0.000000  0.000000  0.000000  0.000000
                       0.000000  0.000000  0.000000  0.000000  0.000000  0.000000
                       0.000000  0.000000  0.000000  0.000000  0.000000  0.000000
                       0.000000  0.000000  0.000000  0.000000  0.000000  0.000000
                       0.000000  0.000000  0.000000  0.000000  0.000000  0.000000
                       0.000000  0.000000  0.000000  0.000000  0.000000  0.000000
                       0.000000  0.000000  0.000000  0.000000  0.000000  0.000000
                       0.000000  0.000000  0.000000  0.000000  0.000000  0.000000
                       0.000000  0.000000  0.000000  0.000000  0.000000  0.000000
                       0.000000  0.000000  0.000000  0.000000  0.000000  0.000000
                       0.000000  0.000000  0.000000  0.000000  0.000000  0.000000
                       0.000000  0.000000  0.000000  0.000000  0.000000  0.000000
                       0.000000  0.000000  0.000000  0.000000  0.000000  0.000000
                       0.000000  0.000000  0.000000  0.000000  0.000000  0.000000
                       0.000000  0.000000  0.000000  0.000000  0.000000  0.000000
                       0.000000  0.000000  0.000000  0.000000  0.000000  0.000000
                       0.000000  0.000000  0.000000  0.000000  0.000000  0.000000
                       0.000000  0.000000  0.000000  0.000000  0.000000  0.000000
                       0.000000  0.000000  0.000000  0.000000  0.000000  0.000000
                       0.000000  0.000000  0.000000  0.000000  0.000000  0.000000
                       0.000000  0.000000  0.000000  0.000000  0.000000  0.000000
                       0.000000  0.000000  0.000000  0.000000  0.000000  0.000000
                       0.000000  0.000000  0.000000  0.000000  0.000000  0.000000
                       0.000000  0.000000  0.000000  0.000000  0.000000  0.000000
                       0.000000  0.000000  0.000000  0.000000  0.000000  0.000000
                       0.000000  0.000000  0.000000  0.000000  0.000000  0.000000
                       0.000000  0.000000  0.000000  0.000000  0.000000  0.000000
                       0.000000  0.000000  0.000000  0.000000  0.000000  0.000000
                       0.000000  0.000000  0.000000  0.000000  0.000000  0.000000
                       0.000000  0.000000  0.000000  0.000000  0.000000  0.000000
                       0.000000  0.000000  0.000000  0.000000  0.000000  0.000000
                       0.000000  0.000000  0.000000  0.000000  0.000000  0.000000
                       0.000000  0.000000  0.000000  0.000000  0.000000  0.000000
                       0.000000  0.000000  0.000000  0.000000  0.000000  0.000000
                       0.000000  0.000000  0.000000  0.000000  0.000000  0.000000
                       0.000000  0.000000  0.000000  0.000000  0.000000  0.000000
                       0.000000  0.000000  0.000000  0.000000  0.000000  0.000000
                       0.000000  0.000000  0.000000  0.000000  0.000000  0.000000
                       0.000000  0.000000  0.000000  0.000000  0.000000  0.000000
                       0.000000  0.000000  0.000000  0.000000  0.000000  0.000000
                       0.000000  0.000000  0.000000  0.000000  0.000000  0.000000
                       0.000000  0.000000  0.000000  0.000000  0.000000  0.000000
                       0.000000  0.000000  0.000000  0.000000  0.000000  0.000000
                       0.000000  0.000000  0.000000  0.000000  0.000000  0.000000
                       0.000000  0.000000  0.000000  0.000000  0.000000  0.000000
                       0.000000  0.000000  0.000000  0.000000  0.000000  0.000000
                       0.000000  0.000000  0.000000  0.000000  0.000000  0.000000
                       0.000000  0.000000  0.000000  0.000000  0.000000  0.000000
                       0.000000  0.000000  0.000000  0.000000  0.000000  0.000000
                       0.000000  0.000000  0.000000  0.000000  0.000000  0.000000
                       0.000000  0.000000  0.000000  0.000000  0.000000  0.000000
                       0.000000  0.000000  0.000000  0.000000  0.000000  0.000000
                       0.000000  0.000000  0.000000  0.000000  0.000000  0.000000
                       0.000000  0.000000  0.000000  0.000000  0.000000  0.000000
                       0.000000  0.000000  0.000000  0.000000  0.000000  0.000000
                       0.000000  0.000000  0.000000  0.000000  0.000000  0.000000
                       0.000000  0.000000  0.000000  0.000000  0.000000  0.000000
                       0.000000  0.000000  0.000000  0.000000  0.000000  0.000000
                       0.000000  0.000000  0.000000  0.000000  0.000000  0.000000
                       0.000000  0.000000  0.000000  0.000000  0.000000  0.000000
                       0.000000  0.000000  0.000000  0.000000  0.000000  0.000000
                       0.000000  0.000000  0.000000  0.000000  0.000000  0.000000
                       0.000000  0.000000  0.000000  0.000000  0.000000  0.000000
                       0.000000  0.000000  0.000000  0.000000  0.000000  0.000000
                       0.000000  0.000000  0.000000  0.000000  0.000000  0.000000
                       0.000000  0.000000  0.000000  0.000000  0.000000  0.000000
                       0.000000  0.000000  0.000000  0.000000  0.000000  0.000000
                       0.000000  0.000000  0.000000  0.000000  0.000000  0.000000
                       0.000000  0.000000  0.000000  0.000000  0.000000  0.000000
                       0.000000  0.000000  0.000000  0.000000  0.000000  0.000000
                       0.000000  0.000000  0.000000  0.000000  0.000000  0.000000
                       0.000000  0.000000  0.000000  0.000000  0.000000  0.000000
                       0.000000  0.000000  0.000000  0.000000  0.000000  0.000000
                       0.000000  0.000000  0.000000  0.000000  0.000000  0.000000
                       0.000000  0.000000  0.000000  0.000000  0.000000  0.000000
                       0.000000  0.000000  0.000000  0.000000  0.000000  0.000000
                       0.000000  0.000000  0.000000  0.000000  0.000000  0.000000
                       0.000000  0.000000  0.000000  0.000000  0.000000  0.000000
                       0.000000  0.000000  0.000000  0.000000  0.000000  0.000000
                       0.000000  0.000000  0.000000  0.000000  0.000000  0.000000
                       0.000000  0.000000  0.000000  0.000000  0.000000  0.000000
                       0.000000  0.000000  0.000000  0.000000  0.000000  0.000000
                       0.000000  0.000000  0.000000  0.000000  0.000000  0.000000
                       0.000000  0.000000  0.000000  0.000000  0.000000  0.000000
                       0.000000  0.000000  0.000000  0.000000  0.000000  0.000000
                       0.000000  0.000000  0.000000  0.000000  0.000000  0.000000
                       0.000000  0.000000  0.000000  0.000000  0.000000  0.000000
                       0.000000  0.000000  0.000000  0.000000  0.000000  0.000000
                       0.000000  0.000000  0.000000  0.000000  0.000000  0.000000
                       0.000000  0.000000  0.000000  0.000000  0.000000  0.000000
                       0.000000  0.000000  0.000000  0.000000  0.000000  0.000000
                       0.000000  0.000000  0.000000  0.000000  0.000000  0.000000
                       0.000000  0.000000  0.000000  0.000000  0.000000  0.000000
                       0.000000  0.000000  0.000000  0.000000  0.000000  0.000000
                       0.000000  0.000000  0.000000  0.000000  0.000000  0.000000
                       0.000000  0.000000  0.000000  0.000000  0.000000  0.000000
                       0.000000  0.000000  0.000000  0.000000  0.000000  0.000000
                       0.000000  0.000000  0.000000  0.000000  0.000000  0.000000
                       0.000000  0.000000  0.000000  0.000000  0.000000  0.000000
                       0.000000  0.000000  0.000000  0.000000  0.000000  0.000000
                       0.000000  0.000000  0.000000  0.000000  0.000000  0.000000
                       0.000000  0.000000  0.000000  0.000000  0.000000  0.000000
                       0.000000  0.000000  0.000000  0.000000  0.000000  0.000000
                       0.000000  0.000000  0.000000  0.000000  0.000000  0.000000
                       0.000000  0.000000  0.000000  0.000000  0.000000  0.000000
                       0.000000  0.000000  0.000000  0.000000  0.000000  0.000000
                       0.000000  0.000000  0.000000  0.000000  0.000000  0.000000
                       0.000000  0.000000  0.000000  0.000000  0.000000  0.000000
                       0.000000  0.000000  0.000000  0.000000  0.000000  0.000000
                       0.000000  0.000000  0.000000  0.000000  0.000000  0.000000
                       0.000000  0.000000  0.000000  0.000000  0.000000  0.000000
                       0.000000  0.000000  0.000000  0.000000  0.000000  0.000000
                       0.000000  0.000000  0.000000  0.000000  0.000000  0.000000
                       0.000000  0.000000  0.000000  0.000000  0.000000  0.000000
                       0.000000  0.000000  0.000000  0.000000  0.000000  0.000000
                       0.000000  0.000000  0.000000  0.000000  0.000000  0.000000
                       0.000000  0.000000  0.000000  0.000000  0.000000  0.000000
                       0.000000  0.000000  0.000000  0.000000  0.000000  0.000000
                       0.000000  0.000000  0.000000  0.000000  0.000000  0.000000
                       0.000000  0.000000  0.000000  0.000000  0.000000  0.000000
                       0.000000  0.000000  0.000000  0.000000  0.000000  0.000000
                       0.000000  0.000000  0.000000  0.000000  0.000000  0.000000
                       0.000000  0.000000  0.000000  0.000000  0.000000  0.000000
                       0.000000  0.000000  0.000000  0.000000  0.000000  0.000000
                       0.000000  0.000000  0.000000  0.000000  0.000000  0.000000
                       0.000000  0.000000  0.000000  0.000000  0.000000  0.000000
                       0.000000  0.000000  0.000000  0.000000  0.000000  0.000000
                       0.000000  0.000000  0.000000  0.000000  0.000000  0.000000
                       0.000000  0.000000  0.000000  0.000000  0.000000  0.000000
                       0.000000  0.000000  0.000000  0.000000  0.000000  0.000000
                       0.000000  0.000000  0.000000  0.000000  0.000000  0.000000
                       0.000000  0.000000  0.000000  0.000000  0.000000  0.000000
                       0.000000  0.000000  0.000000  0.000000  0.000000  0.000000
                       0.000000  0.000000  0.000000  0.000000  0.000000  0.000000
                       0.000000  0.000000  0.000000  0.000000  0.000000  0.000000
                       0.000000  0.000000  0.000000  0.000000  0.000000  0.000000
                       0.000000  0.000000  0.000000  0.000000  0.000000  0.000000
                       0.000000  0.000000  0.000000  0.000000  0.000000  0.000000
                       0.000000  0.000000  0.000000  0.000000  0.000000  0.000000
                       0.000000  0.000000  0.000000  0.000000  0.000000  0.000000
                       0.000000  0.000000  0.000000  0.000000  0.000000  0.000000
                       0.000000  0.000000  0.000000  0.000000  0.000000  0.000000
                       0.000000  0.000000  0.000000  0.000000  0.000000  0.000000
                       0.000000  0.000000  0.000000  0.000000  0.000000  0.000000
                       0.000000  0.000000  0.000000  0.000000  0.000000  0.000000
                       0.000000  0.000000  0.000000  0.000000  0.000000  0.000000
                       0.000000  0.000000  0.000000  0.000000  0.000000  0.000000
                       0.000000  0.000000  0.000000  0.000000  0.000000  0.000000
                       0.000000  0.000000  0.000000  0.000000  0.000000  0.000000
                       0.000000  0.000000  0.000000  0.000000  0.000000  0.000000
                       0.000000  0.000000  0.000000  0.000000  0.000000  0.000000
                       0.000000  0.000000  0.000000  0.000000  0.000000  0.000000
                       0.000000  0.000000  0.000000  0.000000  0.000000  0.000000
                       0.000000  0.000000  0.000000  0.000000  0.000000  0.000000
                       0.000000  0.000000  0.000000  0.000000  0.000000  0.000000
                       0.000000  0.000000  0.000000  0.000000  0.000000  0.000000
                       0.000000  0.000000  0.000000  0.000000  0.000000  0.000000
                       0.000000  0.000000  0.000000  0.000000  0.000000  0.000000
                       0.000000  0.000000  0.000000  0.000000  0.000000  0.000000
                       0.000000  0.000000  0.000000  0.000000  0.000000  0.000000
                       0.000000  0.000000  0.000000  0.000000  0.000000  0.000000
                       0.000000  0.000000  0.000000  0.000000  0.000000  0.000000
                       0.000000  0.000000  0.000000  0.000000  0.000000  0.000000
                       0.000000  0.000000  0.000000  0.000000  0.000000  0.000000
                       0.000000  0.000000  0.000000  0.000000  0.000000  0.000000
                       0.000000  0.000000  0.000000  0.000000  0.000000  0.000000
                       0.000000  0.000000  0.000000  0.000000  0.000000  0.000000
                       0.000000  0.000000  0.000000  0.000000  0.000000  0.000000
                       0.000000  0.000000  0.000000  0.000000  0.000000  0.000000
                       0.000000  0.000000  0.000000  0.000000  0.000000  0.000000
                       0.000000  0.000000  0.000000  0.000000  0.000000  0.000000
                       0.000000  0.000000  0.000000  0.000000  0.000000  0.000000
                       0.000000  0.000000  0.000000  0.000000  0.000000  0.000000
                       0.000000  0.000000  0.000000  0.000000  0.000000  0.000000
                       0.000000  0.000000  0.000000  0.000000  0.000000  0.000000
                       0.000000  0.000000  0.000000  0.000000  0.000000  0.000000
                       0.000000  0.000000  0.000000  0.000000  0.000000  0.000000
                       0.000000  0.000000  0.000000  0.000000  0.000000  0.000000
                       0.000000  0.000000  0.000000  0.000000  0.000000  0.000000
                       0.000000  0.000000  0.000000  0.000000  0.000000  0.000000
                       0.000000  0.000000  0.000000  0.000000  0.000000  0.000000
                       0.000000  0.000000  0.000000  0.000000  0.000000  0.000000
                       0.000000  0.000000  0.000000  0.000000  0.000000  0.000000
                       0.000000  0.000000  0.000000  0.000000  0.000000  0.000000
                       0.000000  0.000000  0.000000  0.000000  0.000000  0.000000
                       0.000000  0.000000  0.000000  0.000000  0.000000  0.000000
                       0.000000  0.000000  0.000000  0.000000  0.000000  0.000000
                       0.000000  0.000000  0.000000  0.000000  0.000000  0.000000
                       0.000000  0.000000  0.000000  0.000000  0.000000  0.000000
                       0.000000  0.000000  0.000000  0.000000  0.000000  0.000000
                       0.000000  0.000000  0.000000  0.000000  0.000000  0.000000
                       0.000000  0.000000  0.000000  0.000000  0.000000  0.000000
                       0.000000  0.000000  0.000000  0.000000  0.000000  0.000000
                       0.000000  0.000000  0.000000  0.000000  0.000000  0.000000
                       0.000000  0.000000  0.000000  0.000000  0.000000  0.000000
                       0.000000  0.000000  0.000000  0.000000  0.000000  0.000000
                       0.000000  0.000000  0.000000  0.000000  0.000000  0.000000
                       0.000000  0.000000  0.000000  0.000000  0.000000  0.000000
                       0.000000  0.000000  0.000000  0.000000  0.000000  0.000000
                       0.000000  0.000000  0.000000  0.000000  0.000000  0.000000
                       0.000000  0.000000  0.000000  0.000000  0.000000  0.000000
                       0.000000  0.000000  0.000000  0.000000  0.000000  0.000000
                       0.000000  0.000000  0.000000  0.000000  0.000000  0.000000
                       0.000000  0.000000  0.000000  0.000000  0.000000  0.000000
                       0.000000  0.000000  0.000000  0.000000  0.000000  0.000000
                       0.000000  0.000000  0.000000  0.000000  0.000000  0.000000
        optdriver           4
          spgroup          57
           symrel      1  0  0   0  1  0   0  0  1      -1  0  0   0 -1  0   0  0 -1
                      -1  0  0   0  1  0   0  0 -1       1  0  0   0 -1  0   0  0  1
                      -1  0  0   0 -1  0   0  0  1       1  0  0   0  1  0   0  0 -1
                       1  0  0   0 -1  0   0  0 -1      -1  0  0   0  1  0   0  0  1
            tnons      0.0000000  0.0000000  0.0000000    -0.0000000 -0.0000000  0.0000000
                       0.5000000  0.5000000  0.0000000     0.5000000  0.5000000  0.0000000
                      -0.0000000  0.5000000  0.0000000     0.0000000  0.5000000  0.0000000
                       0.5000000 -0.0000000  0.0000000     0.5000000  0.0000000  0.0000000
           toldfe      1.00000000E-08 Hartree
           tolsym      1.00000000E-04
            typat      1  1  1  1  1  1  1  1  1  1  1  1  1  1  1  1  1  1  1  1
                       1  1  1  1  1  1  1  1  1  1  1  1  1  1  1  1  1  1  1  1
                       2  2  2  2  2  2  2  2
          usekden           1
          vcutgeo      1.0000000  1.0000000  0.0000000
              wtk        0.02778    0.05556    0.05556    0.02778    0.05556    0.11111
                         0.11111    0.05556    0.05556    0.11111    0.11111    0.05556
                         0.02778    0.05556    0.05556    0.02778
           xangst      1.8216081831E+00  1.8019249212E+00  1.7875794547E+01
                       2.3813168180E+00  2.5704165669E+00  2.9124205453E+01
                       3.9230706837E+00  2.5704165669E+00  2.9124205453E+01
                       2.7985431742E-01  1.8019249212E+00  1.7875794547E+01
                       2.7985431742E-01  3.9880956653E+00  2.9124205453E+01
                       3.9230706837E+00  3.8424582280E-01  1.7875794547E+01
                       2.3813168180E+00  3.8424582280E-01  1.7875794547E+01
                       1.8216081831E+00  3.9880956653E+00  2.9124205453E+01
                       1.8385707832E+00  1.8227363262E+00  2.0360491890E+01
                       2.3643542180E+00  2.5496051620E+00  2.6639508110E+01
                       3.9400332837E+00  2.5496051620E+00  2.6639508110E+01
                       2.6289171740E-01  1.8227363262E+00  2.0360491890E+01
                       2.6289171740E-01  4.0089070702E+00  2.6639508110E+01
                       3.9400332837E+00  3.6343441790E-01  2.0360491890E+01
                       2.3643542180E+00  3.6343441790E-01  2.0360491890E+01
                       1.8385707832E+00  4.0089070702E+00  2.6639508110E+01
                       1.8379122792E+00  1.8215995655E+00  2.2872056793E+01
                       2.3650127219E+00  2.5507419226E+00  2.4127943207E+01
                       3.9393747798E+00  2.5507419226E+00  2.4127943207E+01
                       2.6355022135E-01  1.8215995655E+00  2.2872056793E+01
                       2.6355022135E-01  4.0077703096E+00  2.4127943207E+01
                       3.9393747798E+00  3.6457117855E-01  2.2872056793E+01
                       2.3650127219E+00  3.6457117855E-01  2.2872056793E+01
                       1.8379122792E+00  4.0077703096E+00  2.4127943207E+01
                       1.8378654249E+00  1.8215979835E+00  2.5383749760E+01
                       2.3650595763E+00  2.5507435046E+00  2.1616250240E+01
                       3.9393279254E+00  2.5507435046E+00  2.1616250240E+01
                       2.6359707569E-01  1.8215979835E+00  2.5383749760E+01
                       2.6359707569E-01  4.0077687276E+00  2.1616250240E+01
                       3.9393279254E+00  3.6457276051E-01  2.5383749760E+01
                       2.3650595763E+00  3.6457276051E-01  2.5383749760E+01
                       1.8378654249E+00  4.0077687276E+00  2.1616250240E+01
                       1.8372184378E+00  1.8186815473E+00  2.7898834038E+01
                       2.3657065633E+00  2.5536599408E+00  1.9101165962E+01
                       3.9386809384E+00  2.5536599408E+00  1.9101165962E+01
                       2.6424406273E-01  1.8186815473E+00  2.7898834038E+01
                       2.6424406273E-01  4.0048522914E+00  1.9101165962E+01
                       3.9386809384E+00  3.6748919671E-01  2.7898834038E+01
                       2.3657065633E+00  3.6748919671E-01  2.7898834038E+01
                       1.8372184378E+00  4.0048522914E+00  1.9101165962E+01
                       2.1602651089E+00  2.3011660692E+00  1.6960737322E+01
                       2.0426598923E+00  2.0711754189E+00  3.0039262678E+01
                       5.8802608284E-02  2.0711754189E+00  3.0039262678E+01
                       4.1441223928E+00  2.3011660692E+00  1.6960737322E+01
                       4.1441223928E+00  1.1499532513E-01  3.0039262678E+01
                       5.8802608284E-02  4.2573461630E+00  1.6960737322E+01
                       2.0426598923E+00  4.2573461630E+00  1.6960737322E+01
                       2.1602651089E+00  1.1499532513E-01  3.0039262678E+01
            xcart      3.4423405876E+00  3.4051446132E+00  3.3780356102E+01
                       4.5000366216E+00  4.8573833588E+00  5.5036772144E+01
                       7.4135291922E+00  4.8573833588E+00  5.5036772144E+01
                       5.2884801703E-01  3.4051446132E+00  3.3780356102E+01
                       5.2884801703E-01  7.5364085992E+00  5.5036772144E+01
                       7.4135291922E+00  7.2611937280E-01  3.3780356102E+01
                       4.5000366216E+00  7.2611937280E-01  3.3780356102E+01
                       3.4423405876E+00  7.5364085992E+00  5.5036772144E+01
                       3.4743952561E+00  3.4444724689E+00  3.8475753603E+01
                       4.4679819531E+00  4.8180555031E+00  5.0341374643E+01
                       7.4455838607E+00  4.8180555031E+00  5.0341374643E+01
                       4.9679334849E-01  3.4444724689E+00  3.8475753603E+01
                       4.9679334849E-01  7.5757364549E+00  5.0341374643E+01
                       7.4455838607E+00  6.8679151709E-01  3.8475753603E+01
                       4.4679819531E+00  6.8679151709E-01  3.8475753603E+01
                       3.4743952561E+00  7.5757364549E+00  5.0341374643E+01
                       3.4731508640E+00  3.4423243026E+00  4.3221923434E+01
                       4.4692263452E+00  4.8202036694E+00  4.5595204812E+01
                       7.4443394686E+00  4.8202036694E+00  4.5595204812E+01
                       4.9803774062E-01  3.4423243026E+00  4.3221923434E+01
                       4.9803774062E-01  7.5735882886E+00  4.5595204812E+01
                       7.4443394686E+00  6.8893968340E-01  4.3221923434E+01
                       4.4692263452E+00  6.8893968340E-01  4.3221923434E+01
                       3.4731508640E+00  7.5735882886E+00  4.5595204812E+01
                       3.4730623221E+00  3.4423213131E+00  4.7968335272E+01
                       4.4693148871E+00  4.8202066589E+00  4.0848792974E+01
                       7.4442509267E+00  4.8202066589E+00  4.0848792974E+01
                       4.9812628248E-01  3.4423213131E+00  4.7968335272E+01
                       4.9812628248E-01  7.5735852991E+00  4.0848792974E+01
                       7.4442509267E+00  6.8894267287E-01  4.7968335272E+01
                       4.4693148871E+00  6.8894267287E-01  4.7968335272E+01
                       3.4730623221E+00  7.5735852991E+00  4.0848792974E+01
                       3.4718396938E+00  3.4368100474E+00  5.2721155759E+01
                       4.4705375154E+00  4.8257179246E+00  3.6095972487E+01
                       7.4430282984E+00  4.8257179246E+00  3.6095972487E+01
                       4.9934891081E-01  3.4368100474E+00  5.2721155759E+01
                       4.9934891081E-01  7.5680740334E+00  3.6095972487E+01
                       7.4430282984E+00  6.9445393857E-01  5.2721155759E+01
                       4.4705375154E+00  6.9445393857E-01  5.2721155759E+01
                       3.4718396938E+00  7.5680740334E+00  3.6095972487E+01
                       4.0823094302E+00  4.3485736570E+00  3.2051148550E+01
                       3.8600677790E+00  3.9139543149E+00  5.6765979696E+01
                       1.1112082556E-01  3.9139543149E+00  5.6765979696E+01
                       7.8312563836E+00  4.3485736570E+00  3.2051148550E+01
                       7.8312563836E+00  2.1730967105E-01  5.6765979696E+01
                       1.1112082556E-01  8.0452183009E+00  3.2051148550E+01
                       3.8600677790E+00  8.0452183009E+00  3.2051148550E+01
                       4.0823094302E+00  2.1730967105E-01  5.6765979696E+01
             xred      4.3341439180E-01  4.1211898159E-01  3.8033605420E-01
                       5.6658560820E-01  5.8788101841E-01  6.1966394580E-01
                       9.3341439180E-01  5.8788101841E-01  6.1966394580E-01
                       6.6585608200E-02  4.1211898159E-01  3.8033605420E-01
                       6.6585608200E-02  9.1211898159E-01  6.1966394580E-01
                       9.3341439180E-01  8.7881018408E-02  3.8033605420E-01
                       5.6658560820E-01  8.7881018408E-02  3.8033605420E-01
                       4.3341439180E-01  9.1211898159E-01  6.1966394580E-01
                       4.3745029537E-01  4.1687876647E-01  4.3320195510E-01
                       5.6254970463E-01  5.8312123353E-01  5.6679804490E-01
                       9.3745029537E-01  5.8312123353E-01  5.6679804490E-01
                       6.2549704629E-02  4.1687876647E-01  4.3320195510E-01
                       6.2549704629E-02  9.1687876647E-01  5.6679804490E-01
                       9.3745029537E-01  8.3121233528E-02  4.3320195510E-01
                       5.6254970463E-01  8.3121233528E-02  4.3320195510E-01
                       4.3745029537E-01  9.1687876647E-01  5.6679804490E-01
                       4.3729361783E-01  4.1661877748E-01  4.8663950623E-01
                       5.6270638217E-01  5.8338122252E-01  5.1336049377E-01
                       9.3729361783E-01  5.8338122252E-01  5.1336049377E-01
                       6.2706382170E-02  4.1661877748E-01  4.8663950623E-01
                       6.2706382170E-02  9.1661877748E-01  5.1336049377E-01
                       9.3729361783E-01  8.3381222519E-02  4.8663950623E-01
                       5.6270638217E-01  8.3381222519E-02  4.8663950623E-01
                       4.3729361783E-01  9.1661877748E-01  5.1336049377E-01
                       4.3728246980E-01  4.1661841567E-01  5.4007978212E-01
                       5.6271753020E-01  5.8338158433E-01  4.5992021788E-01
                       9.3728246980E-01  5.8338158433E-01  4.5992021788E-01
                       6.2717530200E-02  4.1661841567E-01  5.4007978212E-01
                       6.2717530200E-02  9.1661841567E-01  4.5992021788E-01
                       9.3728246980E-01  8.3381584329E-02  5.4007978212E-01
                       5.6271753020E-01  8.3381584329E-02  5.4007978212E-01
                       4.3728246980E-01  9.1661841567E-01  4.5992021788E-01
                       4.3712853247E-01  4.1595139636E-01  5.9359221358E-01
                       5.6287146753E-01  5.8404860364E-01  4.0640778642E-01
                       9.3712853247E-01  5.8404860364E-01  4.0640778642E-01
                       6.2871467529E-02  4.1595139636E-01  5.9359221358E-01
                       6.2871467529E-02  9.1595139636E-01  4.0640778642E-01
                       9.3712853247E-01  8.4048603639E-02  5.9359221358E-01
                       5.6287146753E-01  8.4048603639E-02  5.9359221358E-01
                       4.3712853247E-01  9.1595139636E-01  4.0640778642E-01
                       5.1399087737E-01  5.2630062758E-01  3.6086675153E-01
                       4.8600912263E-01  4.7369937242E-01  6.3913324847E-01
                       1.3990877369E-02  4.7369937242E-01  6.3913324847E-01
                       9.8600912263E-01  5.2630062758E-01  3.6086675153E-01
                       9.8600912263E-01  2.6300627578E-02  6.3913324847E-01
                       1.3990877369E-02  9.7369937242E-01  3.6086675153E-01
                       4.8600912263E-01  9.7369937242E-01  3.6086675153E-01
                       5.1399087737E-01  2.6300627578E-02  6.3913324847E-01
            znucl        6.00000    1.00000

================================================================================

 chkinp: Checking input parameters for consistency, jdtset=   4.
 DATA TYPE INFORMATION: 
 REAL:      Data type name: REAL(DP) 
            Kind value:      8
            Precision:      15
            Smallest nonnegligible quantity relative to 1: 0.22204460E-015
            Smallest positive number:                      0.22250739E-307
            Largest representable number:                  0.17976931E+309
 INTEGER:   Data type name: INTEGER(default) 
            Kind value: 4
            Bit size:   32
            Largest representable number: 2147483647
 LOGICAL:   Data type name: LOGICAL 
            Kind value: 4
 CHARACTER: Data type name: CHARACTER             Kind value: 1

  ==== OpenMP parallelism is OFF ====
 
  ==== Using MPI-2 specifications ==== 
  MPI-IO support is ON
  xmpi_tag_ub ................    268435455
  xmpi_bsize_ch ..............            1
  xmpi_bsize_int .............            4
  xmpi_bsize_sp ..............            4
  xmpi_bsize_dp ..............            8
  xmpi_bsize_spc .............            8
  xmpi_bsize_dpc .............           16
  xmpio_bsize_frm ............            4
  xmpi_address_kind ..........            8
  xmpi_offset_kind ...........            8
  MPI_WTICK ..................    2.0000000000000000E-008

================================================================================
== DATASET  4 ==================================================================
-   mpi_nproc: 64, omp_nthreads: -1 (-1 if OMP is not activated)


--- !COMMENT
src_file: m_xgScalapack.F90
src_line: 236
message: |
    xgScalapack in auto mode
...

 mkfilename : getwfk/=0, take file _WFK from output of DATASET   2.

 mkfilename : getscr/=0, take file _SCR from output of DATASET   3.


 getdim_nloc : deduce lmnmax  =   1, lnmax  =   1,
                      lmnmaxso=   4, lnmaxso=   2.
 Tran & Blaha 09
 F. Tran and P. Blaha, Phys. Rev. Lett. 102, 226401 (2009)
 Perdew & Wang
 J. P. Perdew and Y. Wang, Phys. Rev. B 45, 13244 (1992)

 SIGMA: Calculation of the GW corrections 

 Based on a program developped by R.W. Godby, V. Olevano, G. Onida, and L. Reining.
 Incorporated in ABINIT by V. Olevano, G.-M. Rignanese, and M. Torrent.
.Using single precision arithmetic ; gwpc =  4

 Unit cell volume ucvol=  5.8285453E+03 bohr^3
 Angles (23,13,12)=  9.00000000E+01  9.00000000E+01  9.00000000E+01 degrees

 getcut: wavevector=  0.0000  0.0000  0.0000  ngfft=  54  54 576
         ecut(hartree)=     50.000   => boxcut(ratio)=   2.03740

 ==== Dense FFT mesh used for densities and potentials ====
  FFT mesh divisions ........................    54   54  576
  Augmented FFT divisions ...................    55   55  576
  FFT algorithm .............................   312
  FFT cache size ............................    16
- pspini: atom type   1  psp file is ../6c.4.hgh
- pspatm: opening atomic psp file    ../6c.4.hgh
- Hartwigsen-Goedecker-Hutter psp for C,  from PRB58, 3641 (1998)
-  6.00000   4.00000     10605                znucl, zion, pspdat
    3    1    1    0      2001   0.00000      pspcod,pspxc,lmax,lloc,mmax,r2well

--- !WARNING
src_file: m_pspini.F90
src_line: 1039
message: |
    Pseudopotential file pspxc: 1, not equal to input ixc: -208012.
    These parameters must agree to get the same xc in ABINIT code as in psp construction.
    Action: check psp design or input file.
    Assume experienced user. Execution will continue.
...

 rloc=   0.3488300
 cc1 =  -8.5137710; cc2 =   1.2284320; cc3 =   0.0000000; cc4 =   0.0000000
 rrs =   0.3045530; h11s=   9.5228420; h22s=   0.0000000; h33s=   0.0000000
 rrp =   0.2326770; h11p=   0.0000000; h22p=   0.0000000; h33p=   0.0000000
                    k11p=   0.0041040; k22p=   0.0000000; k33p=   0.0000000
-  Local part computed in reciprocal space.

 pspatm : COMMENT -
  the projectors are not normalized,
  so that the KB energies are not consistent with 
  definition in PRB44, 8503 (1991). 
  However, this does not influence the results obtained hereafter.
  pspatm : epsatm=   -0.16969744
         --- l  ekb(1:nproj) -->
             0    0.953587
 pspatm: atomic psp has been read  and splines computed

- pspini: atom type   2  psp file is ../1h.1.hgh
- pspatm: opening atomic psp file    ../1h.1.hgh
- Hartwigsen-Goedecker-Hutter psp for H,  from PRB58, 3641 (1998)
-  1.00000   1.00000     10605                znucl, zion, pspdat
    3    1    0    0      2001   0.00000      pspcod,pspxc,lmax,lloc,mmax,r2well

--- !WARNING
src_file: m_pspini.F90
src_line: 1039
message: |
    Pseudopotential file pspxc: 1, not equal to input ixc: -208012.
    These parameters must agree to get the same xc in ABINIT code as in psp construction.
    Action: check psp design or input file.
    Assume experienced user. Execution will continue.
...

 rloc=   0.2000000
 cc1 =  -4.1802370; cc2 =   0.7250750; cc3 =   0.0000000; cc4 =   0.0000000
 rrs =   0.0000000; h11s=   0.0000000; h22s=   0.0000000; h33s=   0.0000000
-  Local part computed in reciprocal space.

 pspatm : COMMENT -
  the projectors are not normalized,
  so that the KB energies are not consistent with 
  definition in PRB44, 8503 (1991). 
  However, this does not influence the results obtained hereafter.
  pspatm : epsatm=   -0.00129784
         --- l  ekb(1:nproj) -->
 pspatm: atomic psp has been read  and splines computed

  -1.14211111E+03                                ecore*ucvol(ha*bohr**3)
 ==== Info on pseudopotentials ====
  Norm-conserving pseudopotentials
  Number of pseudopotentials ..    2
  Number of types of atoms   ..    2
  Calculation with spin-orbit coupling 
  Max number of channels (spin-orbit included)   3
  - Atom type    1 has spin-orbit characteristics (pspso=  0)
  - Atom type    2 has spin-orbit characteristics (pspso=  0)
  Nonlocal part applied using Legendre polynomials
  Max number of non-local projectors over l and type   1
  Highest angular momentum +1 .......   2
  Max number of (l,n)   components ..   2
  Max number of (l,m,n) components ..   2

 Info on the Q-grid used for form factors in spline form: 
   Number of q-points for radial functions ffspl ..  28272
   Number of q-points for vlspl ...................  28272
   vloc is computed in Reciprocal Space
   model core charge treated in real-space

  XC functional for type 1 is 1
  Pseudo valence available: no
  XC functional for type 2 is 1
  Pseudo valence available: no

 Reading eigenvalues from: 5H-2110_gw_o_DS2_WFK , with iomode: IO_MODE_MPI
 wfk_read_eigenvalues completed. cpu:  0.01 [s] , wall:  0.33 [s] <<< TIME

 Sorting g-vecs for an output of states on an unique "big" PW basis.
 Since the number of g's to be written on file
 was 0 or too large, it has been set to the max. value.,
 computed from the union of the sets of G vectors for the different k-points.
 Number of G-vectors is: *****

  ==== Info on the Cryst% object ====
 Real(R)+Recip(G) space primitive vectors, cartesian coordinates (Bohr,Bohr^-1):
 R(1)=  7.9423772  0.0000000  0.0000000  G(1)=  0.1259069  0.0000000  0.0000000
 R(2)=  0.0000000  8.2625280  0.0000000  G(2)=  0.0000000  0.1210283  0.0000000
 R(3)=  0.0000000  0.0000000 88.8171282  G(3)=  0.0000000  0.0000000  0.0112591
 Unit cell volume ucvol=  5.8285453E+03 bohr^3
 Angles (23,13,12)=  9.00000000E+01  9.00000000E+01  9.00000000E+01 degrees
 Time-reversal symmetry is present
 Reduced atomic positions [iatom, xred, symbol]:
    1)    0.4334144  0.4121190  0.3803361   C
    2)    0.5665856  0.5878810  0.6196639   C
    3)    0.9334144  0.5878810  0.6196639   C
    4)    0.0665856  0.4121190  0.3803361   C
    5)    0.0665856  0.9121190  0.6196639   C
    6)    0.9334144  0.0878810  0.3803361   C
    7)    0.5665856  0.0878810  0.3803361   C
    8)    0.4334144  0.9121190  0.6196639   C
    9)    0.4374503  0.4168788  0.4332020   C
   10)    0.5625497  0.5831212  0.5667980   C
   11)    0.9374503  0.5831212  0.5667980   C
   12)    0.0625497  0.4168788  0.4332020   C
   13)    0.0625497  0.9168788  0.5667980   C
   14)    0.9374503  0.0831212  0.4332020   C
   15)    0.5625497  0.0831212  0.4332020   C
   16)    0.4374503  0.9168788  0.5667980   C
   17)    0.4372936  0.4166188  0.4866395   C
   18)    0.5627064  0.5833812  0.5133605   C
   19)    0.9372936  0.5833812  0.5133605   C
   20)    0.0627064  0.4166188  0.4866395   C
   21)    0.0627064  0.9166188  0.5133605   C
   22)    0.9372936  0.0833812  0.4866395   C
   23)    0.5627064  0.0833812  0.4866395   C
   24)    0.4372936  0.9166188  0.5133605   C
   25)    0.4372825  0.4166184  0.5400798   C
   26)    0.5627175  0.5833816  0.4599202   C
   27)    0.9372825  0.5833816  0.4599202   C
   28)    0.0627175  0.4166184  0.5400798   C
   29)    0.0627175  0.9166184  0.4599202   C
   30)    0.9372825  0.0833816  0.5400798   C
   31)    0.5627175  0.0833816  0.5400798   C
   32)    0.4372825  0.9166184  0.4599202   C
   33)    0.4371285  0.4159514  0.5935922   C
   34)    0.5628715  0.5840486  0.4064078   C
   35)    0.9371285  0.5840486  0.4064078   C
   36)    0.0628715  0.4159514  0.5935922   C
   37)    0.0628715  0.9159514  0.4064078   C
   38)    0.9371285  0.0840486  0.5935922   C
   39)    0.5628715  0.0840486  0.5935922   C
   40)    0.4371285  0.9159514  0.4064078   C
   41)    0.5139909  0.5263006  0.3608668   H
   42)    0.4860091  0.4736994  0.6391332   H
   43)    0.0139909  0.4736994  0.6391332   H
   44)    0.9860091  0.5263006  0.3608668   H
   45)    0.9860091  0.0263006  0.6391332   H
   46)    0.0139909  0.9736994  0.3608668   H
   47)    0.4860091  0.9736994  0.3608668   H
   48)    0.5139909  0.0263006  0.6391332   H
 ==== K-mesh for the wavefunctions ====
 Number of points in the irreducible wedge :    16
 Reduced coordinates and weights : 

     1)     0.00000000E+00  0.00000000E+00  0.00000000E+00       0.02778
     2)     1.66666667E-01  0.00000000E+00  0.00000000E+00       0.05556
     3)     3.33333333E-01  0.00000000E+00  0.00000000E+00       0.05556
     4)     5.00000000E-01  0.00000000E+00  0.00000000E+00       0.02778
     5)     0.00000000E+00  1.66666667E-01  0.00000000E+00       0.05556
     6)     1.66666667E-01  1.66666667E-01  0.00000000E+00       0.11111
     7)     3.33333333E-01  1.66666667E-01  0.00000000E+00       0.11111
     8)     5.00000000E-01  1.66666667E-01  0.00000000E+00       0.05556
     9)     0.00000000E+00  3.33333333E-01  0.00000000E+00       0.05556
    10)     1.66666667E-01  3.33333333E-01  0.00000000E+00       0.11111
    11)     3.33333333E-01  3.33333333E-01  0.00000000E+00       0.11111
    12)     5.00000000E-01  3.33333333E-01  0.00000000E+00       0.05556
    13)     0.00000000E+00  5.00000000E-01  0.00000000E+00       0.02778
    14)     1.66666667E-01  5.00000000E-01  0.00000000E+00       0.05556
    15)     3.33333333E-01  5.00000000E-01  0.00000000E+00       0.05556
    16)     5.00000000E-01  5.00000000E-01  0.00000000E+00       0.02778

 Together with  8 symmetry operations and time-reversal symmetry 
 yields    36 points in the full Brillouin Zone.


 Top of valence: -88.4101 (eV)
 Bottom of conduction: -91.3413 (eV)
 Fermi level: -89.8757  (eV) 

 newocc: new Fermi energy is      -3.318279 , with nelect=    168.000000, Number of bisection calls: 47
 Fermi level: -90.2950  (eV) 



 Detected metallic system for spin channel: 1
 Cannot detect gap for spin: 1
   Fermi level:  -90.295 (eV) with nelect:  168.000

init_Er_from_file- testing file: 5H-2110_gw_o_DS3_SCR
 SCR file: epsilon^-1 , calculated using inclvkb = 2
 TESTPARTICLE RPA
 Identifier                       4
 Kxc kernel                       0
 Treatment of q-->0 limit         2
 headform                        80
 fform                         1004
 gwcalctyp                        0
 Number of components             1       1
 Number of q-points              16
 Number of q-directions           1
 Number of frequencies            2
 Number of bands used          1284
 Dimension of matrix           3051
 Number of planewaves used    98465
 Spectral method                  0
 Test_type                        0
 Time-ordering                    1
 Scissor Energy                 0.000000E+00
 Spectral smearing              1.000000E-01
 Complex Imaginary Shift        3.674933E-03
 The header contains additional records.
 ==== Q-mesh for screening function ====
 Number of points in the irreducible wedge :    16
 Reduced coordinates and weights : 

     1)     0.00000000E+00  0.00000000E+00  0.00000000E+00       0.02778
     2)     1.66666667E-01  0.00000000E+00  0.00000000E+00       0.05556
     3)     3.33333333E-01  0.00000000E+00  0.00000000E+00       0.05556
     4)     5.00000000E-01  0.00000000E+00  0.00000000E+00       0.02778
     5)     0.00000000E+00  1.66666667E-01  0.00000000E+00       0.05556
     6)     1.66666667E-01  1.66666667E-01  0.00000000E+00       0.11111
     7)     3.33333333E-01  1.66666667E-01  0.00000000E+00       0.11111
     8)     5.00000000E-01  1.66666667E-01  0.00000000E+00       0.05556
     9)     0.00000000E+00  3.33333333E-01  0.00000000E+00       0.05556
    10)     1.66666667E-01  3.33333333E-01  0.00000000E+00       0.11111
    11)     3.33333333E-01  3.33333333E-01  0.00000000E+00       0.11111
    12)     5.00000000E-01  3.33333333E-01  0.00000000E+00       0.05556
    13)     0.00000000E+00  5.00000000E-01  0.00000000E+00       0.02778
    14)     1.66666667E-01  5.00000000E-01  0.00000000E+00       0.05556
    15)     3.33333333E-01  5.00000000E-01  0.00000000E+00       0.05556
    16)     5.00000000E-01  5.00000000E-01  0.00000000E+00       0.02778

 Together with  8 symmetry operations and time-reversal symmetry 
 yields    36 points in the full Brillouin Zone.


 Optimal value for ng0sh [1, 1, 0]
  simple integral   22.019029434541466     
  q0 sphere :    1.1821618103942824E-003  q0_vol cyl    1.1586688843171274E-003
  spherical approximation    8362.4112049043015     
  Cylindrical cutoff value    8446.9872290094518     

 === Surface cutoff === 

  Cutoff radius ....................    44.4086 [Bohr] 
  Central plane passing through ....       0.00      0.00      0.00 (r.l.u) 

 q-points for optical limit:   1
     1)      0.000010    0.000020    0.000030

 setmesh: npwwfn        =    98465; Max (m1,m2,m3)   =     12    13   141
          npweps/npwsigx=    34733; Max (mm1,mm2,mm3)=      9    10    99
          mG0 added     =   1  1  0
 calculated ecutwfn          =  49.999 [Ha] 
 calculated ecutsigx/ecuteps =  24.998 [Ha]
 using method =  2 with ecuteff = 145.704 [Ha]
 Finding a FFT mesh compatible with all the symmetries
 setmesh: divisor mesh 2 2 1
 setmesh: FFT mesh size selected  =    48x   48x  486
          total number of points  =      1119744


 ==== FFT mesh for oscillator strengths used for Sigma_c ====
  FFT mesh divisions ........................    36   36  375
  Augmented FFT divisions ...................    37   37  375
  FFT algorithm .............................   312
  FFT cache size ............................    16

 ==== FFT mesh for oscillator strengths used for Sigma_x ====
  FFT mesh divisions ........................    48   48  486
  Augmented FFT divisions ...................    49   49  486
  FFT algorithm .............................   312
  FFT cache size ............................    16
 Memory needed for Fourier components u(G):    375.9 [Mb] <<< MEM
 Storing wavefunctions in single precision array as `enable_gw_dpc="no"`
 Memory needed for real-space u(r):   1853.9 [Mb] <<< MEM
 Memory needed for bks_tab:      1.9 [Mb] <<< MEM
 wfd_init completed. cpu:  0.80 [s] , wall:  0.80 [s] <<< TIME


 wfd_read_wfk: Reading file: 5H-2110_gw_o_DS2_WFK  with iomode: IO_MODE_MPI , master_only: yes
 If MPI-IO is too slow, use the command line option `abinit --enforce-fortran-io ...` 
  to make the master proc read data with Fortran-IO and then broadcast (requires more memory)
 About to read: 500  (b, k, s) states in total.
 For spin: 1 , will read: 16  k-points.
 Reading k-point [1/16] spin [1/1] completed. cpu:  5.42 [s] , wall:  6.22 [s] <<< TIME
 Reading k-point [2/16] spin [1/1] completed. cpu:  5.46 [s] , wall:  6.29 [s] <<< TIME
 Reading k-point [3/16] spin [1/1] completed. cpu:  5.41 [s] , wall:  6.23 [s] <<< TIME
 Reading k-point [4/16] spin [1/1] completed. cpu:  5.40 [s] , wall:  6.28 [s] <<< TIME
 Reading k-point [5/16] spin [1/1] completed. cpu:  5.52 [s] , wall:  6.12 [s] <<< TIME
 Reading k-point [6/16] spin [1/1] completed. cpu:  5.26 [s] , wall:  6.01 [s] <<< TIME
 Reading k-point [7/16] spin [1/1] completed. cpu:  5.20 [s] , wall:  5.94 [s] <<< TIME
 Reading k-point [8/16] spin [1/1] completed. cpu:  5.43 [s] , wall:  6.27 [s] <<< TIME
 Reading k-point [9/16] spin [1/1] completed. cpu:  5.45 [s] , wall:  6.31 [s] <<< TIME
 Reading k-point [10/16] spin [1/1] completed. cpu:  5.44 [s] , wall:  6.33 [s] <<< TIME
 WFK IO completed. cpu: 01:27 [minutes] , wall: 01:40 [minutes] <<< TIME


 planewave contribution to nelect:  168.0000
 planewave contribution to nelect:   69.9858
 Number of electrons calculated from density =  168.0000; Expected =  168.0000
 average of density, n =  0.028824
 r_s =    2.0233
 omega_plasma =   16.3768 [eV]

 Total charge density [el/Bohr^3]
      Maximum=    5.8450E-02  at reduced coord.    0.2593    0.8333    0.7552
      Minimum=    0.0000E+00  at reduced coord.    0.0000    0.0000    0.2951
   Integrated=    1.6800E+02
 Total kinetic energy density [Ha/Bohr^3]
      Maximum=    2.4671E-02  at reduced coord.    0.2593    0.9630    0.7674
      Minimum=    0.0000E+00  at reduced coord.    0.0000    0.0000    0.2969
   Integrated=    6.9986E+01

 1/G**2 cut-off applied in the following step : cutoff-mode = CRYSTAL

 1/G**2 cut-off applied in the following step : cutoff-mode = CRYSTAL

 1/G**2 cut-off applied in the following step : cutoff-mode = CRYSTAL

In the mGGA functional TB09, c =  0.541396
 calc_vhxc_braket : calculating v_xc[n_val] (excluding non-linear core corrections)
 For spin  1 Min density rhor =     0.193179E-10

In the mGGA functional TB09, c =  0.541396
 E_xc[n_val]  =  -8.2112 [Ha]. <V_xc[n_val]> =  -0.8605 [Ha].
 Will calculate 1 <b,k,s|O|b',k,s> matrix elements in calc_vhxc_me.

 === Matrix elements in the KS basis set [eV] ===
 kpt= (  0.00000000E+00  0.00000000E+00  0.00000000E+00) spin= 1:
  ib vxc       vxcval    vhartree
  82 -11.62892 -11.62892 *********
  83 -11.63027 -11.63027 *********
  84 -11.70856 -11.70856 *********
  85 -11.70851 -11.70851 *********
 Er%ID:            4 , Er%Hscr%ID:            4
 Memory needed for Er%epsm1 =       2272.6 [Mb] <<< MEM
 Imaginary frequency for fit located at:   16.7000 [eV]

 cppm1par : omega twiddle minval [eV]  =  0.005765958748
            omega twiddle min location =  2019    1

 Imaginary frequency for fit located at:   16.7000 [eV]

 cppm1par : omega twiddle minval [eV]  =  0.005765958748
            omega twiddle min location =   158   52

 Imaginary frequency for fit located at:   16.7000 [eV]

 cppm1par : omega twiddle minval [eV]  =  0.005765958748
            omega twiddle min location =   696   98

 Imaginary frequency for fit located at:   16.7000 [eV]

 cppm1par : omega twiddle minval [eV]  =  0.005765958748
            omega twiddle min location =   107  208

 Imaginary frequency for fit located at:   16.7000 [eV]

 cppm1par : omega twiddle minval [eV]  =  0.005765958748
            omega twiddle min location =   102  431

 Imaginary frequency for fit located at:   16.7000 [eV]

 cppm1par : omega twiddle minval [eV]  =  0.005765958748
            omega twiddle min location =   302   40

 Imaginary frequency for fit located at:   16.7000 [eV]

 cppm1par : omega twiddle minval [eV]  =  0.005765958748
            omega twiddle min location =  1013   25

 Imaginary frequency for fit located at:   16.7000 [eV]

 cppm1par : omega twiddle minval [eV]  =  0.005765958748
            omega twiddle min location =   355   48

 Imaginary frequency for fit located at:   16.7000 [eV]

 cppm1par : omega twiddle minval [eV]  =  0.005765958748
            omega twiddle min location =    92  372

 Imaginary frequency for fit located at:   16.7000 [eV]

 cppm1par : omega twiddle minval [eV]  =  0.005765958748
            omega twiddle min location =   240   79

 Imaginary frequency for fit located at:   16.7000 [eV]

 cppm1par : omega twiddle minval [eV]  =  0.005765958748
            omega twiddle min location =   513  111

 Imaginary frequency for fit located at:   16.7000 [eV]

 cppm1par : omega twiddle minval [eV]  =  0.005765958748
            omega twiddle min location =   341    9

 Imaginary frequency for fit located at:   16.7000 [eV]

 cppm1par : omega twiddle minval [eV]  =  0.005765958748
            omega twiddle min location =  1453  138

 Imaginary frequency for fit located at:   16.7000 [eV]

 cppm1par : omega twiddle minval [eV]  =  0.005765958748
            omega twiddle min location =   364   60

 Imaginary frequency for fit located at:   16.7000 [eV]

 cppm1par : omega twiddle minval [eV]  =  0.005765958748
            omega twiddle min location =   701    6

 Imaginary frequency for fit located at:   16.7000 [eV]

 cppm1par : omega twiddle minval [eV]  =  0.005765958748
            omega twiddle min location =   511    3

 SIGMA fundamental parameters:
 PLASMON POLE MODEL  1
 number of plane-waves for SigmaX                34733
 number of plane-waves for SigmaC and W           3051
 number of plane-waves for wavefunctions         98465
 number of bands                                  1926
 number of independent spin polarizations            1
 number of spinorial components                      1
 number of k-points in IBZ                          16
 number of q-points in IBZ                          16
 number of symmetry operations                       8
 number of k-points in BZ                           36
 number of q-points in BZ                           36
 number of frequencies for dSigma/dE                 9
 frequency step for dSigma/dE [eV]                0.25
 number of omega for Sigma on real axis              0
 max omega for Sigma on real axis  [eV]           0.00
 zcut for avoiding poles [eV]                     0.10

 EPSILON^-1 parameters (SCR file):
 dimension of the eps^-1 matrix on file           3051
 dimension of the eps^-1 matrix used              3051
 number of plane-waves for wavefunctions         98465
 number of bands                                  1284
 number of q-points in IBZ                          16
 number of frequencies                               2
 number of real frequencies                          1
 number of imag frequencies                          1

 matrix elements of self-energy operator (all in [eV])

 Perturbative Calculation
 ==== Info on the Wfd% object ====
  Number of irreducible k-points ........ 16
  Number of spinorial components ........ 1
  Number of spin-density components ..... 1
  Number of spin polarizations .......... 1
  Plane wave cutoff energy ..............  50.0
  Max number of G-vectors ............... 98536
  Total number of FFT points ............ 1679616
  Number of FFT points treated by me .... 1679616


 ==== FFT mesh for wavefunctions ====
  FFT mesh divisions ........................    54   54  576
  Augmented FFT divisions ...................    55   55  576
  FFT algorithm .............................   312
  FFT cache size ............................    16

 Total number of (b,k,s) states stored by this rank: 500
 Memory allocated for Fourier components u(G):    375.9 [Mb] <<< MEM
 Memory allocated for real-space u(r):    422.9 [Mb] <<< MEM
 Memory needed for wfd%s datastructure:      0.0 [Mb] <<< MEM
 Memory needed for wfd%s(0)%k datastructure:      0.0 [Mb] <<< MEM
 Memory allocated for Kdata array:      0.0 [Mb] <<< MEM

 standard GW with PPM
 Perturbative Calculation

 Calculating <nk|Sigma_x|nk> at k=    0.000   0.000   0.000
 bands from  82 to  85

 Will sum   33 (b, k, s) occupied states in Sigma_x.

 ==== Little Group Info ==== 
  External point   0.00000000E+00  0.00000000E+00  0.00000000E+00
  Number of points in the IBZ defined by little group     16/   36
  Number of operations in the little group :  16/  8

  No time-reversal symmetry with zero umklapp:  8
  No time-reversal symmetry with non-zero umklapp:  0


  time-reversal symmetry with zero umklapp:  8
  time-reversal symmetry with non-zero umklapp:  0


 calc_sigx_me: calculation status (16 to be completed):
 calc_sigx_me: ik_bz    1/  36 done by mpi-rank:   0
 calc_sigx_me: ik_bz    3/  36 done by mpi-rank:   0
 calc_sigx_me: ik_bz    5/  36 done by mpi-rank:   0
 calc_sigx_me: ik_bz    6/  36 done by mpi-rank:   0
 calc_sigx_me: ik_bz    8/  36 done by mpi-rank:   0
 calc_sigx_me: ik_bz   10/  36 done by mpi-rank:   0
 calc_sigx_me: ik_bz   14/  36 done by mpi-rank:   0
 calc_sigx_me: ik_bz   18/  36 done by mpi-rank:   0
 calc_sigx_me: ik_bz   20/  36 done by mpi-rank:   0
 calc_sigx_me: ik_bz   22/  36 done by mpi-rank:   0
 calc_sigx_me: ik_bz   26/  36 done by mpi-rank:   0
 calc_sigx_me: ik_bz   30/  36 done by mpi-rank:   0
 calc_sigx_me: ik_bz   31/  36 done by mpi-rank:   0
 calc_sigx_me: ik_bz   33/  36 done by mpi-rank:   0
 calc_sigx_me: ik_bz   35/  36 done by mpi-rank:   0
 calc_sigx_me: ik_bz   36/  36 done by mpi-rank:   0
 cpu_time =      10.5, wall_time =      10.5

 Calculating <nk|Sigma_c(omega)|nk> at k =    0.000   0.000   0.000
 bands n = from  82 to  85

 standard GW with PPM
 Will sum 497 (b,k,s) states in Sigma_c.

 ==== Little Group Info ==== 
  External point   0.00000000E+00  0.00000000E+00  0.00000000E+00
  Number of points in the IBZ defined by little group     16/   36
  Number of operations in the little group :  16/  8

  No time-reversal symmetry with zero umklapp:  8
  No time-reversal symmetry with non-zero umklapp:  0


  time-reversal symmetry with zero umklapp:  8
  time-reversal symmetry with non-zero umklapp:  0


 calculation status (     16 to be completed):
 Sigma_c: ik_bz 1/36, spin: 1 done by mpi-rank: 0
 Sigma_c: ik_bz 3/36, spin: 1 done by mpi-rank: 0
 Sigma_c: ik_bz 5/36, spin: 1 done by mpi-rank: 0
 Sigma_c: ik_bz 6/36, spin: 1 done by mpi-rank: 0
 Sigma_c: ik_bz 8/36, spin: 1 done by mpi-rank: 0
 Sigma_c: ik_bz 10/36, spin: 1 done by mpi-rank: 0
 Sigma_c: ik_bz 14/36, spin: 1 done by mpi-rank: 0
 Sigma_c: ik_bz 18/36, spin: 1 done by mpi-rank: 0
 Sigma_c: ik_bz 20/36, spin: 1 done by mpi-rank: 0
 Sigma_c: ik_bz 22/36, spin: 1 done by mpi-rank: 0
 Sigma_c: ik_bz 26/36, spin: 1 done by mpi-rank: 0
 Sigma_c: ik_bz 30/36, spin: 1 done by mpi-rank: 0
 Sigma_c: ik_bz 31/36, spin: 1 done by mpi-rank: 0
 Sigma_c: ik_bz 33/36, spin: 1 done by mpi-rank: 0
 Sigma_c: ik_bz 35/36, spin: 1 done by mpi-rank: 0
 Sigma_c: ik_bz 36/36, spin: 1 done by mpi-rank: 0
 cpu_time =    1032.9, wall_time =    1034.7

--- !WARNING
src_file: m_dyson_solver.F90
src_line: 203
message: |
    Values of Re Sig_c are not linear 
    band index = 82 spin|component = 1
    root mean square=      0.008442565510015
    estimated slope =     -0.112646868539966
    Omega [eV] SigC [eV]
...

-92.5546 -0.4576
-92.3046 -0.5715
-92.0546 -0.7050
-91.8046 -1.1607
-91.5546 -0.2665
-91.3046 -0.5712
-91.0546 -0.7021
-90.8046 -0.7880
-90.5546 -0.8665

--- !WARNING
src_file: m_dyson_solver.F90
src_line: 203
message: |
    Values of Re Sig_c are not linear 
    band index = 83 spin|component = 1
    root mean square=      0.008465991251013
    estimated slope =     -0.115495460737165
    Omega [eV] SigC [eV]
...

-92.5400 -0.5305
-92.2900 -0.6435
-92.0400 -0.7768
-91.7900 -1.2336
-91.5400 -0.3364
-91.2900 -0.6461
-91.0400 -0.7772
-90.7900 -0.8648
-90.5400 -0.9444

--- !WARNING
src_file: m_dyson_solver.F90
src_line: 203
message: |
    Values of Re Sig_c are not linear 
    band index = 84 spin|component = 1
    root mean square=      0.008111375806962
    estimated slope =     -0.126466850430024
    Omega [eV] SigC [eV]
...

-92.3424 -0.6645
-92.0924 -0.7752
-91.8424 -0.8761
-91.5924 -1.3439
-91.3424 -0.4839
-91.0924 -0.7897
-90.8424 -0.9060
-90.5924 -0.9997
-90.3424 -1.0940

--- !WARNING
src_file: m_dyson_solver.F90
src_line: 203
message: |
    Values of Re Sig_c are not linear 
    band index = 85 spin|component = 1
    root mean square=      0.008398630190039
    estimated slope =     -0.120178646500427
    Omega [eV] SigC [eV]
...

-92.3413 -1.1279
-92.0913 -1.2153
-91.8413 -1.2665
-91.5913 -1.3875
-91.3413 -1.7275
-91.0913 -0.8307
-90.8413 -1.2894
-90.5913 -1.4288
-90.3413 -1.5462

 k =    0.000   0.000   0.000
 Band     E0 <VxcDFT>   SigX SigC(E0)      Z dSigC/dE  Sig(E)    E-E0       E
   82 -91.555 -11.629 -11.840  -0.266   0.899  -0.113 -12.058  -0.430 -91.984
   82   0.000   0.000   0.000  -0.001   0.000   0.000  -0.001  -0.001  -0.001
   83 -91.540 -11.630 -11.829  -0.336   0.896  -0.115 -12.110  -0.480 -92.020
   83   0.000   0.000   0.000  -0.001   0.000   0.000  -0.001  -0.001  -0.001
   84 -91.342 -11.709 -11.617  -0.484   0.888  -0.126 -12.056  -0.348 -91.690
   84   0.000   0.000   0.000   0.001   0.000   0.000   0.001   0.001   0.001
   85 -91.341 -11.709 -10.074  -1.727   0.893  -0.120 -11.791  -0.083 -91.424
   85   0.000   0.000   0.000   0.001   0.000   0.000   0.001   0.001   0.001
- Creating netcdf file WITHOUT MPI-IO support: 5H-2110_gw_o_DS4_SIGRES.nc

== END DATASET(S) ==============================================================
================================================================================
  
 -outvars: echo values of variables after computation  --------
 
 These variables are accessible in NetCDF format (5H-2110_gw_o_OUT.nc)

            acell      7.9423772092E+00  8.2625279720E+00  8.8817128246E+01 Bohr
[...]
                       0.000000  0.000000  0.000000  0.000000  0.000000  0.000000
                       0.000000  0.000000  0.000000  0.000000  0.000000  0.000000
                       0.000000  0.000000  0.000000  0.000000  0.000000  0.000000
                       0.000000  0.000000  0.000000  0.000000  0.000000  0.000000
                       0.000000  0.000000  0.000000  0.000000  0.000000  0.000000
                       0.000000  0.000000  0.000000  0.000000  0.000000  0.000000
                       0.000000  0.000000  0.000000  0.000000  0.000000  0.000000
                       0.000000  0.000000  0.000000  0.000000  0.000000  0.000000
                       0.000000  0.000000  0.000000  0.000000  0.000000  0.000000
                       0.000000  0.000000  0.000000  0.000000  0.000000  0.000000
                       0.000000  0.000000  0.000000  0.000000  0.000000  0.000000
                       0.000000  0.000000  0.000000  0.000000  0.000000  0.000000
                       0.000000  0.000000  0.000000  0.000000  0.000000  0.000000
                       0.000000  0.000000  0.000000  0.000000  0.000000  0.000000
                       0.000000  0.000000  0.000000  0.000000  0.000000  0.000000
                       0.000000  0.000000  0.000000  0.000000  0.000000  0.000000
        optdriver           4
          spgroup          57
           strten4     0.0000000000E+00  0.0000000000E+00  0.0000000000E+00
                       0.0000000000E+00  0.0000000000E+00  0.0000000000E+00
           symrel      1  0  0   0  1  0   0  0  1      -1  0  0   0 -1  0   0  0 -1
                      -1  0  0   0  1  0   0  0 -1       1  0  0   0 -1  0   0  0  1
                      -1  0  0   0 -1  0   0  0  1       1  0  0   0  1  0   0  0 -1
                       1  0  0   0 -1  0   0  0 -1      -1  0  0   0  1  0   0  0  1
            tnons      0.0000000  0.0000000  0.0000000    -0.0000000 -0.0000000  0.0000000
                       0.5000000  0.5000000  0.0000000     0.5000000  0.5000000  0.0000000
                      -0.0000000  0.5000000  0.0000000     0.0000000  0.5000000  0.0000000
                       0.5000000 -0.0000000  0.0000000     0.5000000  0.0000000  0.0000000
           toldfe      1.00000000E-08 Hartree
           tolsym      1.00000000E-04
            typat      1  1  1  1  1  1  1  1  1  1  1  1  1  1  1  1  1  1  1  1
                       1  1  1  1  1  1  1  1  1  1  1  1  1  1  1  1  1  1  1  1
                       2  2  2  2  2  2  2  2
          usekden           1
          vcutgeo      1.0000000  1.0000000  0.0000000
              wtk        0.02778    0.05556    0.05556    0.02778    0.05556    0.11111
                         0.11111    0.05556    0.05556    0.11111    0.11111    0.05556
                         0.02778    0.05556    0.05556    0.02778
           xangst      1.8216081831E+00  1.8019249212E+00  1.7875794547E+01
                       2.3813168180E+00  2.5704165669E+00  2.9124205453E+01
                       3.9230706837E+00  2.5704165669E+00  2.9124205453E+01
                       2.7985431742E-01  1.8019249212E+00  1.7875794547E+01
                       2.7985431742E-01  3.9880956653E+00  2.9124205453E+01
                       3.9230706837E+00  3.8424582280E-01  1.7875794547E+01
                       2.3813168180E+00  3.8424582280E-01  1.7875794547E+01
                       1.8216081831E+00  3.9880956653E+00  2.9124205453E+01
                       1.8385707832E+00  1.8227363262E+00  2.0360491890E+01
                       2.3643542180E+00  2.5496051620E+00  2.6639508110E+01
                       3.9400332837E+00  2.5496051620E+00  2.6639508110E+01
                       2.6289171740E-01  1.8227363262E+00  2.0360491890E+01
                       2.6289171740E-01  4.0089070702E+00  2.6639508110E+01
                       3.9400332837E+00  3.6343441790E-01  2.0360491890E+01
                       2.3643542180E+00  3.6343441790E-01  2.0360491890E+01
                       1.8385707832E+00  4.0089070702E+00  2.6639508110E+01
                       1.8379122792E+00  1.8215995655E+00  2.2872056793E+01
                       2.3650127219E+00  2.5507419226E+00  2.4127943207E+01
                       3.9393747798E+00  2.5507419226E+00  2.4127943207E+01
                       2.6355022135E-01  1.8215995655E+00  2.2872056793E+01
                       2.6355022135E-01  4.0077703096E+00  2.4127943207E+01
                       3.9393747798E+00  3.6457117855E-01  2.2872056793E+01
                       2.3650127219E+00  3.6457117855E-01  2.2872056793E+01
                       1.8379122792E+00  4.0077703096E+00  2.4127943207E+01
                       1.8378654249E+00  1.8215979835E+00  2.5383749760E+01
                       2.3650595763E+00  2.5507435046E+00  2.1616250240E+01
                       3.9393279254E+00  2.5507435046E+00  2.1616250240E+01
                       2.6359707569E-01  1.8215979835E+00  2.5383749760E+01
                       2.6359707569E-01  4.0077687276E+00  2.1616250240E+01
                       3.9393279254E+00  3.6457276051E-01  2.5383749760E+01
                       2.3650595763E+00  3.6457276051E-01  2.5383749760E+01
                       1.8378654249E+00  4.0077687276E+00  2.1616250240E+01
                       1.8372184378E+00  1.8186815473E+00  2.7898834038E+01
                       2.3657065633E+00  2.5536599408E+00  1.9101165962E+01
                       3.9386809384E+00  2.5536599408E+00  1.9101165962E+01
                       2.6424406273E-01  1.8186815473E+00  2.7898834038E+01
                       2.6424406273E-01  4.0048522914E+00  1.9101165962E+01
                       3.9386809384E+00  3.6748919671E-01  2.7898834038E+01
                       2.3657065633E+00  3.6748919671E-01  2.7898834038E+01
                       1.8372184378E+00  4.0048522914E+00  1.9101165962E+01
                       2.1602651089E+00  2.3011660692E+00  1.6960737322E+01
                       2.0426598923E+00  2.0711754189E+00  3.0039262678E+01
                       5.8802608284E-02  2.0711754189E+00  3.0039262678E+01
                       4.1441223928E+00  2.3011660692E+00  1.6960737322E+01
                       4.1441223928E+00  1.1499532513E-01  3.0039262678E+01
                       5.8802608284E-02  4.2573461630E+00  1.6960737322E+01
                       2.0426598923E+00  4.2573461630E+00  1.6960737322E+01
                       2.1602651089E+00  1.1499532513E-01  3.0039262678E+01
            xcart      3.4423405876E+00  3.4051446132E+00  3.3780356102E+01
                       4.5000366216E+00  4.8573833588E+00  5.5036772144E+01
                       7.4135291922E+00  4.8573833588E+00  5.5036772144E+01
                       5.2884801703E-01  3.4051446132E+00  3.3780356102E+01
                       5.2884801703E-01  7.5364085992E+00  5.5036772144E+01
                       7.4135291922E+00  7.2611937280E-01  3.3780356102E+01
                       4.5000366216E+00  7.2611937280E-01  3.3780356102E+01
                       3.4423405876E+00  7.5364085992E+00  5.5036772144E+01
                       3.4743952561E+00  3.4444724689E+00  3.8475753603E+01
                       4.4679819531E+00  4.8180555031E+00  5.0341374643E+01
                       7.4455838607E+00  4.8180555031E+00  5.0341374643E+01
                       4.9679334849E-01  3.4444724689E+00  3.8475753603E+01
                       4.9679334849E-01  7.5757364549E+00  5.0341374643E+01
                       7.4455838607E+00  6.8679151709E-01  3.8475753603E+01
                       4.4679819531E+00  6.8679151709E-01  3.8475753603E+01
                       3.4743952561E+00  7.5757364549E+00  5.0341374643E+01
                       3.4731508640E+00  3.4423243026E+00  4.3221923434E+01
                       4.4692263452E+00  4.8202036694E+00  4.5595204812E+01
                       7.4443394686E+00  4.8202036694E+00  4.5595204812E+01
                       4.9803774062E-01  3.4423243026E+00  4.3221923434E+01
                       4.9803774062E-01  7.5735882886E+00  4.5595204812E+01
                       7.4443394686E+00  6.8893968340E-01  4.3221923434E+01
                       4.4692263452E+00  6.8893968340E-01  4.3221923434E+01
                       3.4731508640E+00  7.5735882886E+00  4.5595204812E+01
                       3.4730623221E+00  3.4423213131E+00  4.7968335272E+01
                       4.4693148871E+00  4.8202066589E+00  4.0848792974E+01
                       7.4442509267E+00  4.8202066589E+00  4.0848792974E+01
                       4.9812628248E-01  3.4423213131E+00  4.7968335272E+01
                       4.9812628248E-01  7.5735852991E+00  4.0848792974E+01
                       7.4442509267E+00  6.8894267287E-01  4.7968335272E+01
                       4.4693148871E+00  6.8894267287E-01  4.7968335272E+01
                       3.4730623221E+00  7.5735852991E+00  4.0848792974E+01
                       3.4718396938E+00  3.4368100474E+00  5.2721155759E+01
                       4.4705375154E+00  4.8257179246E+00  3.6095972487E+01
                       7.4430282984E+00  4.8257179246E+00  3.6095972487E+01
                       4.9934891081E-01  3.4368100474E+00  5.2721155759E+01
                       4.9934891081E-01  7.5680740334E+00  3.6095972487E+01
                       7.4430282984E+00  6.9445393857E-01  5.2721155759E+01
                       4.4705375154E+00  6.9445393857E-01  5.2721155759E+01
                       3.4718396938E+00  7.5680740334E+00  3.6095972487E+01
                       4.0823094302E+00  4.3485736570E+00  3.2051148550E+01
                       3.8600677790E+00  3.9139543149E+00  5.6765979696E+01
                       1.1112082556E-01  3.9139543149E+00  5.6765979696E+01
                       7.8312563836E+00  4.3485736570E+00  3.2051148550E+01
                       7.8312563836E+00  2.1730967105E-01  5.6765979696E+01
                       1.1112082556E-01  8.0452183009E+00  3.2051148550E+01
                       3.8600677790E+00  8.0452183009E+00  3.2051148550E+01
                       4.0823094302E+00  2.1730967105E-01  5.6765979696E+01
             xred      4.3341439180E-01  4.1211898159E-01  3.8033605420E-01
                       5.6658560820E-01  5.8788101841E-01  6.1966394580E-01
                       9.3341439180E-01  5.8788101841E-01  6.1966394580E-01
                       6.6585608200E-02  4.1211898159E-01  3.8033605420E-01
                       6.6585608200E-02  9.1211898159E-01  6.1966394580E-01
                       9.3341439180E-01  8.7881018408E-02  3.8033605420E-01
                       5.6658560820E-01  8.7881018408E-02  3.8033605420E-01
                       4.3341439180E-01  9.1211898159E-01  6.1966394580E-01
                       4.3745029537E-01  4.1687876647E-01  4.3320195510E-01
                       5.6254970463E-01  5.8312123353E-01  5.6679804490E-01
                       9.3745029537E-01  5.8312123353E-01  5.6679804490E-01
                       6.2549704629E-02  4.1687876647E-01  4.3320195510E-01
                       6.2549704629E-02  9.1687876647E-01  5.6679804490E-01
                       9.3745029537E-01  8.3121233528E-02  4.3320195510E-01
                       5.6254970463E-01  8.3121233528E-02  4.3320195510E-01
                       4.3745029537E-01  9.1687876647E-01  5.6679804490E-01
                       4.3729361783E-01  4.1661877748E-01  4.8663950623E-01
                       5.6270638217E-01  5.8338122252E-01  5.1336049377E-01
                       9.3729361783E-01  5.8338122252E-01  5.1336049377E-01
                       6.2706382170E-02  4.1661877748E-01  4.8663950623E-01
                       6.2706382170E-02  9.1661877748E-01  5.1336049377E-01
                       9.3729361783E-01  8.3381222519E-02  4.8663950623E-01
                       5.6270638217E-01  8.3381222519E-02  4.8663950623E-01
                       4.3729361783E-01  9.1661877748E-01  5.1336049377E-01
                       4.3728246980E-01  4.1661841567E-01  5.4007978212E-01
                       5.6271753020E-01  5.8338158433E-01  4.5992021788E-01
                       9.3728246980E-01  5.8338158433E-01  4.5992021788E-01
                       6.2717530200E-02  4.1661841567E-01  5.4007978212E-01
                       6.2717530200E-02  9.1661841567E-01  4.5992021788E-01
                       9.3728246980E-01  8.3381584329E-02  5.4007978212E-01
                       5.6271753020E-01  8.3381584329E-02  5.4007978212E-01
                       4.3728246980E-01  9.1661841567E-01  4.5992021788E-01
                       4.3712853247E-01  4.1595139636E-01  5.9359221358E-01
                       5.6287146753E-01  5.8404860364E-01  4.0640778642E-01
                       9.3712853247E-01  5.8404860364E-01  4.0640778642E-01
                       6.2871467529E-02  4.1595139636E-01  5.9359221358E-01
                       6.2871467529E-02  9.1595139636E-01  4.0640778642E-01
                       9.3712853247E-01  8.4048603639E-02  5.9359221358E-01
                       5.6287146753E-01  8.4048603639E-02  5.9359221358E-01
                       4.3712853247E-01  9.1595139636E-01  4.0640778642E-01
                       5.1399087737E-01  5.2630062758E-01  3.6086675153E-01
                       4.8600912263E-01  4.7369937242E-01  6.3913324847E-01
                       1.3990877369E-02  4.7369937242E-01  6.3913324847E-01
                       9.8600912263E-01  5.2630062758E-01  3.6086675153E-01
                       9.8600912263E-01  2.6300627578E-02  6.3913324847E-01
                       1.3990877369E-02  9.7369937242E-01  3.6086675153E-01
                       4.8600912263E-01  9.7369937242E-01  3.6086675153E-01
                       5.1399087737E-01  2.6300627578E-02  6.3913324847E-01
            znucl        6.00000    1.00000

================================================================================
  

================================================================================

 Suggested references for the acknowledgment of ABINIT usage.

 The users of ABINIT have little formal obligations with respect to the ABINIT group
 (those specified in the GNU General Public License, http://www.gnu.org/copyleft/gpl.txt).
 However, it is common practice in the scientific literature,
 to acknowledge the efforts of people that have made the research possible.
 In this spirit, please find below suggested citations of work written by ABINIT developers,
 corresponding to implementations inside of ABINIT that you have used in the present run.
 Note also that it will be of great value to readers of publications presenting these results,
 to read papers enabling them to understand the theoretical formalism and details
 of the ABINIT implementation.
 For information on why they are suggested, see also https://docs.abinit.org/theory/acknowledgments.
-
- [1] Libxc: A library of exchange and correlation functionals for density functional theory.
- M.A.L. Marques, M.J.T. Oliveira, T. Burnus, Computer Physics Communications 183, 2227 (2012).
- Comment: to be cited when LibXC is used (negative value of ixc)
- Strong suggestion to cite this paper.
- DOI and bibtex: see https://docs.abinit.org/theory/bibliography/#marques2012
-
- [2] The Abinit project: Impact, environment and recent developments.
- Computer Phys. Comm. 248, 107042 (2020).
- X.Gonze, B. Amadon, G. Antonius, F.Arnardi, L.Baguet, J.-M.Beuken,
- J.Bieder, F.Bottin, J.Bouchet, E.Bousquet, N.Brouwer, F.Bruneval,
- G.Brunin, T.Cavignac, J.-B. Charraud, Wei Chen, M.Cote, S.Cottenier,
- J.Denier, G.Geneste, Ph.Ghosez, M.Giantomassi, Y.Gillet, O.Gingras,
- D.R.Hamann, G.Hautier, Xu He, N.Helbig, N.Holzwarth, Y.Jia, F.Jollet,
- W.Lafargue-Dit-Hauret, K.Lejaeghere, M.A.L.Marques, A.Martin, C.Martins,
- H.P.C. Miranda, F.Naccarato, K. Persson, G.Petretto, V.Planes, Y.Pouillon,
- S.Prokhorenko, F.Ricci, G.-M.Rignanese, A.H.Romero, M.M.Schmitt, M.Torrent,
- M.J.van Setten, B.Van Troeye, M.J.Verstraete, G.Zerah and J.W.Zwanzig
- Comment: the fifth generic paper describing the ABINIT project.
- Note that a version of this paper, that is not formatted for Computer Phys. Comm. 
- is available at https://www.abinit.org/sites/default/files/ABINIT20.pdf .
- The licence allows the authors to put it on the Web.
- DOI and bibtex: see https://docs.abinit.org/theory/bibliography/#gonze2020
-
- [3] ABINIT: Overview, and focus on selected capabilities
- J. Chem. Phys. 152, 124102 (2020).
- A. Romero, D.C. Allan, B. Amadon, G. Antonius, T. Applencourt, L.Baguet,
- J.Bieder, F.Bottin, J.Bouchet, E.Bousquet, F.Bruneval,
- G.Brunin, D.Caliste, M.Cote,
- J.Denier, C. Dreyer, Ph.Ghosez, M.Giantomassi, Y.Gillet, O.Gingras,
- D.R.Hamann, G.Hautier, F.Jollet, G. Jomard,
- A.Martin, 
- H.P.C. Miranda, F.Naccarato, G.Petretto, N.A. Pike, V.Planes,
- S.Prokhorenko, T. Rangel, F.Ricci, G.-M.Rignanese, M.Royo, M.Stengel, M.Torrent,
- M.J.van Setten, B.Van Troeye, M.J.Verstraete, J.Wiktor, J.W.Zwanziger, and X.Gonze.
- Comment: a global overview of ABINIT, with focus on selected capabilities .
- Note that a version of this paper, that is not formatted for J. Chem. Phys 
- is available at https://www.abinit.org/sites/default/files/ABINIT20_JPC.pdf .
- The licence allows the authors to put it on the Web.
- DOI and bibtex: see https://docs.abinit.org/theory/bibliography/#romero2020
-
- [4] Recent developments in the ABINIT software package.
- Computer Phys. Comm. 205, 106 (2016).
- X.Gonze, F.Jollet, F.Abreu Araujo, D.Adams, B.Amadon, T.Applencourt,
- C.Audouze, J.-M.Beuken, J.Bieder, A.Bokhanchuk, E.Bousquet, F.Bruneval
- D.Caliste, M.Cote, F.Dahm, F.Da Pieve, M.Delaveau, M.Di Gennaro,
- B.Dorado, C.Espejo, G.Geneste, L.Genovese, A.Gerossier, M.Giantomassi,
- Y.Gillet, D.R.Hamann, L.He, G.Jomard, J.Laflamme Janssen, S.Le Roux,
- A.Levitt, A.Lherbier, F.Liu, I.Lukacevic, A.Martin, C.Martins,
- M.J.T.Oliveira, S.Ponce, Y.Pouillon, T.Rangel, G.-M.Rignanese,
- A.H.Romero, B.Rousseau, O.Rubel, A.A.Shukri, M.Stankovski, M.Torrent,
- M.J.Van Setten, B.Van Troeye, M.J.Verstraete, D.Waroquier, J.Wiktor,
- B.Xu, A.Zhou, J.W.Zwanziger.
- Comment: the fourth generic paper describing the ABINIT project.
- Note that a version of this paper, that is not formatted for Computer Phys. Comm. 
- is available at https://www.abinit.org/sites/default/files/ABINIT16.pdf .
- The licence allows the authors to put it on the Web.
- DOI and bibtex: see https://docs.abinit.org/theory/bibliography/#gonze2016
-
- And optionally:
-
- [5] ABINIT: First-principles approach of materials and nanosystem properties.
- Computer Phys. Comm. 180, 2582-2615 (2009).
- X. Gonze, B. Amadon, P.-M. Anglade, J.-M. Beuken, F. Bottin, P. Boulanger, F. Bruneval,
- D. Caliste, R. Caracas, M. Cote, T. Deutsch, L. Genovese, Ph. Ghosez, M. Giantomassi
- S. Goedecker, D.R. Hamann, P. Hermet, F. Jollet, G. Jomard, S. Leroux, M. Mancini, S. Mazevet,
- M.J.T. Oliveira, G. Onida, Y. Pouillon, T. Rangel, G.-M. Rignanese, D. Sangalli, R. Shaltaf,
- M. Torrent, M.J. Verstraete, G. Zerah, J.W. Zwanziger
- Comment: the third generic paper describing the ABINIT project.
- Note that a version of this paper, that is not formatted for Computer Phys. Comm. 
- is available at https://www.abinit.org/sites/default/files/ABINIT_CPC_v10.pdf .
- The licence allows the authors to put it on the Web.
- DOI and bibtex: see https://docs.abinit.org/theory/bibliography/#gonze2009
 Proc.   0 individual time (sec): cpu=       1177.3  wall=       1199.2

 Calculation completed.
.Delivered   0 WARNINGs and   2 COMMENTs to log file.

--- !FinalSummary
program: abinit
version: 9.7.2
start_datetime: Fri Mar 25 00:30:04 2022
end_datetime: Fri Mar 25 00:50:03 2022
overall_cpu_time:       76251.9
overall_wall_time:       76749.1
exit_requested_by_user: no 
timelimit: 0
pseudos: 
    C   : c654b01b9d50d97c5308503e02772833
    H   : 7109fe59811bb9b2bbf03a2a890c4d73
usepaw: 0
mpi_procs: 64
omp_threads: 1
num_warnings: 0
num_comments: 2
...
