  ABINIT 9.7.2
  
 DeprecationWarning: 

     The files file has been deprecated in Abinit9 and will be removed in Abinit10.
     Use the syntax `abinit t01.abi` where t01.abi is an input with pseudopotentials e.g.

            pseudos = "al.psp8, as.psp8"


  Give name for formatted input file: 
./1F-2110_gw.abi
  Give name for formatted output file:
1F-2110_gw.abo
  Give root name for generic input files:
1F-2110_gw_i
  Give root name for generic output files:
1F-2110_gw_o
  Give root name for generic temporary files:
1F-2110_gw
 
--- !COMMENT
src_file: m_dtfil.F90
src_line: 1476
message: |
    Output file: 1F-2110_gw.abo already exists.
...
 
 
--- !COMMENT
src_file: m_dtfil.F90
src_line: 1500
message: |
    Renaming old: 1F-2110_gw.abo to: 1F-2110_gw.abo0006
...
 

.Version 9.7.2 of ABINIT 
.(MPI version, prepared for a x86_64_linux_intel2021.2 computer) 

.Copyright (C) 1998-2021 ABINIT group . 
 ABINIT comes with ABSOLUTELY NO WARRANTY.
 It is free software, and you are welcome to redistribute it
 under certain conditions (GNU General Public License,
 see ~abinit/COPYING or http://www.gnu.org/copyleft/gpl.txt).

 ABINIT is a project of the Universite Catholique de Louvain,
 Corning Inc. and other collaborators, see ~abinit/doc/developers/contributors.txt .
 Please read https://docs.abinit.org/theory/acknowledgments for suggested
 acknowledgments of the ABINIT effort.
 For more information, see https://www.abinit.org .

.Starting date : Tue  1 Mar 2022.
- ( at 19h35 )
  
 
 ++++++++++++++++++++++++++++++++++++++++++++++++++++++++++++++++++++++++++++++
 
 === Build Information === 
  Version       : 9.7.2
  Build target  : x86_64_linux_intel2021.2
  Build date    : 20211124
 
 === Compiler Suite === 
  C compiler       : intel2021.2
  C++ compiler     : gnu2021.2
  Fortran compiler : intel2021.2
  CFLAGS           : -O2 -g
  CXXFLAGS         : -O2 -g
  FCFLAGS          : -O2 -g   -I/home/ucl/modl/gmatteo/git_repos/abinit_rmms/_intel/fall ...
  FC_LDFLAGS       :   -static-intel -static-libgcc
 
 === Optimizations === 
  Debug level        : basic
  Optimization level : standard
  Architecture       : amd_epyc
 
 === Multicore === 
  Parallel build : yes
  Parallel I/O   : 
  openMP support : no
  GPU support    : 
 
 === Connectors / Fallbacks === 
  LINALG flavor  : mkl
  FFT flavor     : dfti
  HDF5           : yes
  NetCDF         : yes
  NetCDF Fortran : yes
  LibXC          : yes
  Wannier90      : no
 
 === Experimental features === 
  Exports             : 
  GW double-precision : 
 
 ++++++++++++++++++++++++++++++++++++++++++++++++++++++++++++++++++++++++++++++
 

 ++++++++++++++++++++++++++++++++++++++++++++++++++++++++++++++++++++++++++++++
 Default optimizations:
   --- None ---


 ++++++++++++++++++++++++++++++++++++++++++++++++++++++++++++++++++++++++++++++


 ++++++++++++++++++++++++++++++++++++++++++++++++++++++++++++++++++++++++++++++
 CPP options activated during the build:

                  CC_INTEL                   CXX_GNU                  FC_INTEL
 
                 HAVE_DFTI HAVE_FC_ALLOCATABLE_DT...             HAVE_FC_ASYNC
 
  HAVE_FC_COMMAND_ARGUMENT      HAVE_FC_COMMAND_LINE        HAVE_FC_CONTIGUOUS
 
           HAVE_FC_CPUTIME             HAVE_FC_ETIME              HAVE_FC_EXIT
 
             HAVE_FC_FLUSH             HAVE_FC_GAMMA            HAVE_FC_GETENV
 
            HAVE_FC_GETPID   HAVE_FC_IEEE_ARITHMETIC   HAVE_FC_IEEE_EXCEPTIONS
 
             HAVE_FC_IOMSG     HAVE_FC_ISO_C_BINDING  HAVE_FC_ISO_FORTRAN_2008
 
        HAVE_FC_LONG_LINES        HAVE_FC_MOVE_ALLOC  HAVE_FC_ON_THE_FLY_SHAPE
 
           HAVE_FC_PRIVATE         HAVE_FC_PROTECTED           HAVE_FC_SHIFTLR
 
         HAVE_FC_STREAM_IO            HAVE_FC_SYSTEM                 HAVE_HDF5
 
             HAVE_HDF5_MPI        HAVE_LIBPAW_ABINIT      HAVE_LIBTETRA_ABINIT
 
                HAVE_LIBXC         HAVE_LINALG_AXPBY        HAVE_LINALG_GEMM3M
 
         HAVE_LINALG_GEMMT  HAVE_LINALG_MKL_IMATCOPY   HAVE_LINALG_MKL_OMATADD
 
  HAVE_LINALG_MKL_OMATCOPY   HAVE_LINALG_MKL_THREADS                  HAVE_MPI
 
                 HAVE_MPI2       HAVE_MPI_IALLGATHER       HAVE_MPI_IALLREDUCE
 
        HAVE_MPI_IALLTOALL       HAVE_MPI_IALLTOALLV           HAVE_MPI_IBCAST
 
         HAVE_MPI_IGATHERV        HAVE_MPI_INTEGER16               HAVE_MPI_IO
 
 HAVE_MPI_TYPE_CREATE_S...               HAVE_NETCDF       HAVE_NETCDF_FORTRAN
 
   HAVE_NETCDF_FORTRAN_MPI           HAVE_NETCDF_MPI             HAVE_OS_LINUX
 
         HAVE_TIMER_ABINIT                                                      
 ++++++++++++++++++++++++++++++++++++++++++++++++++++++++++++++++++++++++++++++

- input  file    -> ./1F-2110_gw.abi
- output file    -> 1F-2110_gw.abo
- root for input  files -> 1F-2110_gw_i
- root for output files -> 1F-2110_gw_o
 
 Netcdf library supports MPI-IO
-instrng: 114 lines of input have been read from file ./1F-2110_gw.abi
 

 Please give name of formatted atomic psp file (and finish with a newline character)
 For atom type 1, psp file is ../6c.4.hgh

 Please give name of formatted atomic psp file (and finish with a newline character)
 For atom type 2, psp file is ../9f.7.hgh
  read the values zionpsp=  4.0 , pspcod=   3 , lmax=   1
  read the values zionpsp=  7.0 , pspcod=   3 , lmax=   1
 
 inpspheads: deduce mpsang = 2, n1xccc = 0.

======================================================= 
 invars1m : enter jdtset= 3
 
 symlatt: the Bravais lattice is oP (primitive orthorhombic)
  xred   is defined in input file
 ingeo: takes atomic coordinates from input array xred
 
--- !COMMENT
src_file: m_ingeo.F90
src_line: 900
message: |
    The tolerance on symmetries =   1.000E-04 is bigger than 1.0e-8.
    In order to avoid spurious effects, the atomic coordinates have been
    symmetrized before storing them in the dataset internal variable.
    So, do not be surprised by the fact that your input variables (xcart, xred, ...)
    do not correspond exactly to the ones echoed by ABINIT, the latter being used to do the calculations.
    This is not a problem per se.
    Still, in order to avoid this symmetrization (e.g. for specific debugging/development), decrease tolsym to 1.0e-8 or lower,
    or (much preferred) use input primitive vectors that are accurate to better than 1.0e-8.
    This message will only be printed once, even if there are other datasets where tolsym is bigger than 1.0e-8.
...
 
 
 symlatt: the Bravais lattice is oP (primitive orthorhombic)
 
 symlatt: the Bravais lattice is oP (primitive orthorhombic)
  symspgr: 55 or 57
 symspgr: spgroup=  57  Pb c m   (=D2h^11)

======================================================= 
 invars1m : enter jdtset= 4
 
 symlatt: the Bravais lattice is oP (primitive orthorhombic)
  xred   is defined in input file
 ingeo: takes atomic coordinates from input array xred
 
 symlatt: the Bravais lattice is oP (primitive orthorhombic)
 
 symlatt: the Bravais lattice is oP (primitive orthorhombic)
  symspgr: 55 or 57
 symspgr: spgroup=  57  Pb c m   (=D2h^11)
 
--- !COMMENT
src_file: m_gsphere.F90
src_line: 1644
message: |
    One of the three variables ecutsigx, npwsigx, or nshsigx
    must be non-null. Returning.
...
 
 
--- !COMMENT
src_file: m_gsphere.F90
src_line: 1644
message: |
    One of the three variables ecuteps, npweps, or nsheps
    must be non-null. Returning.
...
 
 
--- !WARNING
src_file: m_mpinfo.F90
src_line: 2495
message: |
    nproc_spkpt= 96 >= nkpt= 16* nsppol= 1
    The number of processors is larger than nkpt*nsppol. This is a waste. (Ignore this warning if this is not a GS run)
...
 
 For input ecut=  5.000000E+01 best grid ngfft=      60      60     480
       max ecut=  5.184214E+01
 
 ==== FFT mesh ====
  FFT mesh divisions ........................    60   60  480
  Augmented FFT divisions ...................    61   61  480
  FFT algorithm .............................   512
  FFT cache size ............................    16
 getmpw: optimal value of mpw= 96664
 
--- !WARNING
src_file: m_mpinfo.F90
src_line: 2495
message: |
    nproc_spkpt= 96 >= nkpt= 16* nsppol= 1
    The number of processors is larger than nkpt*nsppol. This is a waste. (Ignore this warning if this is not a GS run)
...
 
 For input ecut=  5.000000E+01 best grid ngfft=      60      60     480
       max ecut=  5.184214E+01
 
 ==== FFT mesh ====
  FFT mesh divisions ........................    60   60  480
  Augmented FFT divisions ...................    61   61  480
  FFT algorithm .............................   512
  FFT cache size ............................    16
 getmpw: optimal value of mpw= 96664
 
 DATASET    3 : space group Pb c m (# 57); Bravais oP (primitive ortho.)
 
 getdim_nloc : deduce lmnmax  =   1, lnmax  =   1,
                      lmnmaxso=   4, lnmaxso=   2.
memory: analysis of memory needs
================================================================================
 Values of the parameters that define the memory need for DATASET  3.
     intxc =       0    ionmov =       0      iscf =       7    lmnmax =       1
     lnmax =       1     mgfft =     480  mpssoang =       2    mqgrid =   22525
     natom =      16  nloc_mem =       1    nspden =       1   nspinor =       1
    nsppol =       1      nsym =       8    n1xccc =       0    ntypat =       2
    occopt =       1   xclevel =       2
-    mband =         444        mffmem =           1         mkmem =           1
       mpw =       96664          nfft =     1728000          nkpt =          16
================================================================================
P This job should need less than                    1205.251 Mbytes of memory.
  Rough estimation (10% accuracy) of disk space for files :
_ WF disk file :  10478.229 Mbytes ; DEN or POT disk file :     13.186 Mbytes.
================================================================================
 
 Biggest array : cg(disk), with    654.8912 MBytes.
 
 DATASET    4 : space group Pb c m (# 57); Bravais oP (primitive ortho.)
 
 getdim_nloc : deduce lmnmax  =   1, lnmax  =   1,
                      lmnmaxso=   4, lnmaxso=   2.
memory: analysis of memory needs
================================================================================
 Values of the parameters that define the memory need for DATASET  4.
     intxc =       0    ionmov =       0      iscf =       7    lmnmax =       1
     lnmax =       1     mgfft =     480  mpssoang =       2    mqgrid =   22525
     natom =      16  nloc_mem =       1    nspden =       1   nspinor =       1
    nsppol =       1      nsym =       8    n1xccc =       0    ntypat =       2
    occopt =       1   xclevel =       2
-    mband =         666        mffmem =           1         mkmem =           1
       mpw =       96664          nfft =     1728000          nkpt =          16
================================================================================
P This job should need less than                    1540.122 Mbytes of memory.
  Rough estimation (10% accuracy) of disk space for files :
_ WF disk file :  15717.342 Mbytes ; DEN or POT disk file :     13.186 Mbytes.
================================================================================
 
 Biggest array : cg(disk), with    982.3357 MBytes.
--------------------------------------------------------------------------------
------------- Echo of variables that govern the present computation ------------
--------------------------------------------------------------------------------
-
- outvars: echo of selected default values                                      
-   iomode0 =  0 , fftalg0 =512 , wfoptalg0 =  0
-
- outvars: echo of global parameters not present in the input file              
-  max_nthreads =    0
-
 -outvars: echo values of preprocessed input variables --------
 
 These variables are accessible in NetCDF format (1F-2110_gw_o_OUT.nc)

            acell      8.7280598041E+00  9.2558147077E+00  7.0762684772E+01 Bohr
              amu      1.20110000E+01  1.89984032E+01
             bdgw4         42      45
          chkprim           0
           diemac      1.20000000E+01
             ecut      5.00000000E+01 Hartree
          ecuteps3     5.00000000E+00 Hartree
          ecuteps4     0.00000000E+00 Hartree
         ecutsigx3     0.00000000E+00 Hartree
         ecutsigx4     2.50000000E+01 Hartree
          ecutwfn      5.00000000E+01 Hartree
-          fftalg         512
           getscr3          0
           getscr4          3
           getwfk           2
      gw_icutcoul           2
           istwfk        1    0    0    1    0    0    0    0    0    0
                         0    0    1    0    0    1
              ixc     -208012
           jdtset        3    4
              kpt      0.00000000E+00  0.00000000E+00  0.00000000E+00
                       1.66666667E-01  0.00000000E+00  0.00000000E+00
                       3.33333333E-01  0.00000000E+00  0.00000000E+00
                       5.00000000E-01  0.00000000E+00  0.00000000E+00
                       0.00000000E+00  1.66666667E-01  0.00000000E+00
                       1.66666667E-01  1.66666667E-01  0.00000000E+00
                       3.33333333E-01  1.66666667E-01  0.00000000E+00
                       5.00000000E-01  1.66666667E-01  0.00000000E+00
                       0.00000000E+00  3.33333333E-01  0.00000000E+00
                       1.66666667E-01  3.33333333E-01  0.00000000E+00
                       3.33333333E-01  3.33333333E-01  0.00000000E+00
                       5.00000000E-01  3.33333333E-01  0.00000000E+00
                       0.00000000E+00  5.00000000E-01  0.00000000E+00
                       1.66666667E-01  5.00000000E-01  0.00000000E+00
                       3.33333333E-01  5.00000000E-01  0.00000000E+00
                       5.00000000E-01  5.00000000E-01  0.00000000E+00
            kptgw4     0.00000000E+00  0.00000000E+00  0.00000000E+00
         kptrlatt        6    0    0      0    6    0      0    0    1
          kptrlen      5.23683588E+01
P           mkmem           1
            natom          16
            nband3        444
            nband4        666
           ndtset           2
            ngfft          60      60     480
             nkpt          16
           nkptgw3          0
           nkptgw4          1
           npweps3       3087
           npweps4          0
          npwsigx3          0
          npwsigx4      34141
           npwwfn       96531
            nstep         100
             nsym           8
           ntypat           2
              occ3     2.000000  2.000000  2.000000  2.000000  2.000000  2.000000
                       2.000000  2.000000  2.000000  2.000000  2.000000  2.000000
                       2.000000  2.000000  2.000000  2.000000  2.000000  2.000000
                       2.000000  2.000000  2.000000  2.000000  2.000000  2.000000
                       2.000000  2.000000  2.000000  2.000000  2.000000  2.000000
                       2.000000  2.000000  2.000000  2.000000  2.000000  2.000000
                       2.000000  2.000000  2.000000  2.000000  2.000000  2.000000
                       2.000000  2.000000  0.000000  0.000000  0.000000  0.000000
                       0.000000  0.000000  0.000000  0.000000  0.000000  0.000000
                       0.000000  0.000000  0.000000  0.000000  0.000000  0.000000
                       0.000000  0.000000  0.000000  0.000000  0.000000  0.000000
                       0.000000  0.000000  0.000000  0.000000  0.000000  0.000000
                       0.000000  0.000000  0.000000  0.000000  0.000000  0.000000
                       0.000000  0.000000  0.000000  0.000000  0.000000  0.000000
                       0.000000  0.000000  0.000000  0.000000  0.000000  0.000000
                       0.000000  0.000000  0.000000  0.000000  0.000000  0.000000
                       0.000000  0.000000  0.000000  0.000000  0.000000  0.000000
                       0.000000  0.000000  0.000000  0.000000  0.000000  0.000000
                       0.000000  0.000000  0.000000  0.000000  0.000000  0.000000
                       0.000000  0.000000  0.000000  0.000000  0.000000  0.000000
                       0.000000  0.000000  0.000000  0.000000  0.000000  0.000000
                       0.000000  0.000000  0.000000  0.000000  0.000000  0.000000
                       0.000000  0.000000  0.000000  0.000000  0.000000  0.000000
                       0.000000  0.000000  0.000000  0.000000  0.000000  0.000000
                       0.000000  0.000000  0.000000  0.000000  0.000000  0.000000
                       0.000000  0.000000  0.000000  0.000000  0.000000  0.000000
                       0.000000  0.000000  0.000000  0.000000  0.000000  0.000000
                       0.000000  0.000000  0.000000  0.000000  0.000000  0.000000
                       0.000000  0.000000  0.000000  0.000000  0.000000  0.000000
                       0.000000  0.000000  0.000000  0.000000  0.000000  0.000000
                       0.000000  0.000000  0.000000  0.000000  0.000000  0.000000
                       0.000000  0.000000  0.000000  0.000000  0.000000  0.000000
                       0.000000  0.000000  0.000000  0.000000  0.000000  0.000000
                       0.000000  0.000000  0.000000  0.000000  0.000000  0.000000
                       0.000000  0.000000  0.000000  0.000000  0.000000  0.000000
                       0.000000  0.000000  0.000000  0.000000  0.000000  0.000000
                       0.000000  0.000000  0.000000  0.000000  0.000000  0.000000
                       0.000000  0.000000  0.000000  0.000000  0.000000  0.000000
                       0.000000  0.000000  0.000000  0.000000  0.000000  0.000000
                       0.000000  0.000000  0.000000  0.000000  0.000000  0.000000
                       0.000000  0.000000  0.000000  0.000000  0.000000  0.000000
                       0.000000  0.000000  0.000000  0.000000  0.000000  0.000000
                       0.000000  0.000000  0.000000  0.000000  0.000000  0.000000
                       0.000000  0.000000  0.000000  0.000000  0.000000  0.000000
                       0.000000  0.000000  0.000000  0.000000  0.000000  0.000000
                       0.000000  0.000000  0.000000  0.000000  0.000000  0.000000
                       0.000000  0.000000  0.000000  0.000000  0.000000  0.000000
                       0.000000  0.000000  0.000000  0.000000  0.000000  0.000000
                       0.000000  0.000000  0.000000  0.000000  0.000000  0.000000
                       0.000000  0.000000  0.000000  0.000000  0.000000  0.000000
                       0.000000  0.000000  0.000000  0.000000  0.000000  0.000000
                       0.000000  0.000000  0.000000  0.000000  0.000000  0.000000
                       0.000000  0.000000  0.000000  0.000000  0.000000  0.000000
                       0.000000  0.000000  0.000000  0.000000  0.000000  0.000000
                       0.000000  0.000000  0.000000  0.000000  0.000000  0.000000
                       0.000000  0.000000  0.000000  0.000000  0.000000  0.000000
                       0.000000  0.000000  0.000000  0.000000  0.000000  0.000000
                       0.000000  0.000000  0.000000  0.000000  0.000000  0.000000
                       0.000000  0.000000  0.000000  0.000000  0.000000  0.000000
                       0.000000  0.000000  0.000000  0.000000  0.000000  0.000000
                       0.000000  0.000000  0.000000  0.000000  0.000000  0.000000
                       0.000000  0.000000  0.000000  0.000000  0.000000  0.000000
                       0.000000  0.000000  0.000000  0.000000  0.000000  0.000000
                       0.000000  0.000000  0.000000  0.000000  0.000000  0.000000
                       0.000000  0.000000  0.000000  0.000000  0.000000  0.000000
                       0.000000  0.000000  0.000000  0.000000  0.000000  0.000000
                       0.000000  0.000000  0.000000  0.000000  0.000000  0.000000
                       0.000000  0.000000  0.000000  0.000000  0.000000  0.000000
                       0.000000  0.000000  0.000000  0.000000  0.000000  0.000000
                       0.000000  0.000000  0.000000  0.000000  0.000000  0.000000
                       0.000000  0.000000  0.000000  0.000000  0.000000  0.000000
                       0.000000  0.000000  0.000000  0.000000  0.000000  0.000000
                       0.000000  0.000000  0.000000  0.000000  0.000000  0.000000
                       0.000000  0.000000  0.000000  0.000000  0.000000  0.000000
              occ4     2.000000  2.000000  2.000000  2.000000  2.000000  2.000000
                       2.000000  2.000000  2.000000  2.000000  2.000000  2.000000
                       2.000000  2.000000  2.000000  2.000000  2.000000  2.000000
                       2.000000  2.000000  2.000000  2.000000  2.000000  2.000000
                       2.000000  2.000000  2.000000  2.000000  2.000000  2.000000
                       2.000000  2.000000  2.000000  2.000000  2.000000  2.000000
                       2.000000  2.000000  2.000000  2.000000  2.000000  2.000000
                       2.000000  2.000000  0.000000  0.000000  0.000000  0.000000
                       0.000000  0.000000  0.000000  0.000000  0.000000  0.000000
                       0.000000  0.000000  0.000000  0.000000  0.000000  0.000000
                       0.000000  0.000000  0.000000  0.000000  0.000000  0.000000
                       0.000000  0.000000  0.000000  0.000000  0.000000  0.000000
                       0.000000  0.000000  0.000000  0.000000  0.000000  0.000000
                       0.000000  0.000000  0.000000  0.000000  0.000000  0.000000
                       0.000000  0.000000  0.000000  0.000000  0.000000  0.000000
                       0.000000  0.000000  0.000000  0.000000  0.000000  0.000000
                       0.000000  0.000000  0.000000  0.000000  0.000000  0.000000
                       0.000000  0.000000  0.000000  0.000000  0.000000  0.000000
                       0.000000  0.000000  0.000000  0.000000  0.000000  0.000000
                       0.000000  0.000000  0.000000  0.000000  0.000000  0.000000
                       0.000000  0.000000  0.000000  0.000000  0.000000  0.000000
                       0.000000  0.000000  0.000000  0.000000  0.000000  0.000000
                       0.000000  0.000000  0.000000  0.000000  0.000000  0.000000
                       0.000000  0.000000  0.000000  0.000000  0.000000  0.000000
                       0.000000  0.000000  0.000000  0.000000  0.000000  0.000000
                       0.000000  0.000000  0.000000  0.000000  0.000000  0.000000
                       0.000000  0.000000  0.000000  0.000000  0.000000  0.000000
                       0.000000  0.000000  0.000000  0.000000  0.000000  0.000000
                       0.000000  0.000000  0.000000  0.000000  0.000000  0.000000
                       0.000000  0.000000  0.000000  0.000000  0.000000  0.000000
                       0.000000  0.000000  0.000000  0.000000  0.000000  0.000000
                       0.000000  0.000000  0.000000  0.000000  0.000000  0.000000
                       0.000000  0.000000  0.000000  0.000000  0.000000  0.000000
                       0.000000  0.000000  0.000000  0.000000  0.000000  0.000000
                       0.000000  0.000000  0.000000  0.000000  0.000000  0.000000
                       0.000000  0.000000  0.000000  0.000000  0.000000  0.000000
                       0.000000  0.000000  0.000000  0.000000  0.000000  0.000000
                       0.000000  0.000000  0.000000  0.000000  0.000000  0.000000
                       0.000000  0.000000  0.000000  0.000000  0.000000  0.000000
                       0.000000  0.000000  0.000000  0.000000  0.000000  0.000000
                       0.000000  0.000000  0.000000  0.000000  0.000000  0.000000
                       0.000000  0.000000  0.000000  0.000000  0.000000  0.000000
                       0.000000  0.000000  0.000000  0.000000  0.000000  0.000000
                       0.000000  0.000000  0.000000  0.000000  0.000000  0.000000
                       0.000000  0.000000  0.000000  0.000000  0.000000  0.000000
                       0.000000  0.000000  0.000000  0.000000  0.000000  0.000000
                       0.000000  0.000000  0.000000  0.000000  0.000000  0.000000
                       0.000000  0.000000  0.000000  0.000000  0.000000  0.000000
                       0.000000  0.000000  0.000000  0.000000  0.000000  0.000000
                       0.000000  0.000000  0.000000  0.000000  0.000000  0.000000
                       0.000000  0.000000  0.000000  0.000000  0.000000  0.000000
                       0.000000  0.000000  0.000000  0.000000  0.000000  0.000000
                       0.000000  0.000000  0.000000  0.000000  0.000000  0.000000
                       0.000000  0.000000  0.000000  0.000000  0.000000  0.000000
                       0.000000  0.000000  0.000000  0.000000  0.000000  0.000000
                       0.000000  0.000000  0.000000  0.000000  0.000000  0.000000
                       0.000000  0.000000  0.000000  0.000000  0.000000  0.000000
                       0.000000  0.000000  0.000000  0.000000  0.000000  0.000000
                       0.000000  0.000000  0.000000  0.000000  0.000000  0.000000
                       0.000000  0.000000  0.000000  0.000000  0.000000  0.000000
                       0.000000  0.000000  0.000000  0.000000  0.000000  0.000000
                       0.000000  0.000000  0.000000  0.000000  0.000000  0.000000
                       0.000000  0.000000  0.000000  0.000000  0.000000  0.000000
                       0.000000  0.000000  0.000000  0.000000  0.000000  0.000000
                       0.000000  0.000000  0.000000  0.000000  0.000000  0.000000
                       0.000000  0.000000  0.000000  0.000000  0.000000  0.000000
                       0.000000  0.000000  0.000000  0.000000  0.000000  0.000000
                       0.000000  0.000000  0.000000  0.000000  0.000000  0.000000
                       0.000000  0.000000  0.000000  0.000000  0.000000  0.000000
                       0.000000  0.000000  0.000000  0.000000  0.000000  0.000000
                       0.000000  0.000000  0.000000  0.000000  0.000000  0.000000
                       0.000000  0.000000  0.000000  0.000000  0.000000  0.000000
                       0.000000  0.000000  0.000000  0.000000  0.000000  0.000000
                       0.000000  0.000000  0.000000  0.000000  0.000000  0.000000
                       0.000000  0.000000  0.000000  0.000000  0.000000  0.000000
                       0.000000  0.000000  0.000000  0.000000  0.000000  0.000000
                       0.000000  0.000000  0.000000  0.000000  0.000000  0.000000
                       0.000000  0.000000  0.000000  0.000000  0.000000  0.000000
                       0.000000  0.000000  0.000000  0.000000  0.000000  0.000000
                       0.000000  0.000000  0.000000  0.000000  0.000000  0.000000
                       0.000000  0.000000  0.000000  0.000000  0.000000  0.000000
                       0.000000  0.000000  0.000000  0.000000  0.000000  0.000000
                       0.000000  0.000000  0.000000  0.000000  0.000000  0.000000
                       0.000000  0.000000  0.000000  0.000000  0.000000  0.000000
                       0.000000  0.000000  0.000000  0.000000  0.000000  0.000000
                       0.000000  0.000000  0.000000  0.000000  0.000000  0.000000
                       0.000000  0.000000  0.000000  0.000000  0.000000  0.000000
                       0.000000  0.000000  0.000000  0.000000  0.000000  0.000000
                       0.000000  0.000000  0.000000  0.000000  0.000000  0.000000
                       0.000000  0.000000  0.000000  0.000000  0.000000  0.000000
                       0.000000  0.000000  0.000000  0.000000  0.000000  0.000000
                       0.000000  0.000000  0.000000  0.000000  0.000000  0.000000
                       0.000000  0.000000  0.000000  0.000000  0.000000  0.000000
                       0.000000  0.000000  0.000000  0.000000  0.000000  0.000000
                       0.000000  0.000000  0.000000  0.000000  0.000000  0.000000
                       0.000000  0.000000  0.000000  0.000000  0.000000  0.000000
                       0.000000  0.000000  0.000000  0.000000  0.000000  0.000000
                       0.000000  0.000000  0.000000  0.000000  0.000000  0.000000
                       0.000000  0.000000  0.000000  0.000000  0.000000  0.000000
                       0.000000  0.000000  0.000000  0.000000  0.000000  0.000000
                       0.000000  0.000000  0.000000  0.000000  0.000000  0.000000
                       0.000000  0.000000  0.000000  0.000000  0.000000  0.000000
                       0.000000  0.000000  0.000000  0.000000  0.000000  0.000000
                       0.000000  0.000000  0.000000  0.000000  0.000000  0.000000
                       0.000000  0.000000  0.000000  0.000000  0.000000  0.000000
                       0.000000  0.000000  0.000000  0.000000  0.000000  0.000000
                       0.000000  0.000000  0.000000  0.000000  0.000000  0.000000
                       0.000000  0.000000  0.000000  0.000000  0.000000  0.000000
                       0.000000  0.000000  0.000000  0.000000  0.000000  0.000000
                       0.000000  0.000000  0.000000  0.000000  0.000000  0.000000
                       0.000000  0.000000  0.000000  0.000000  0.000000  0.000000
        optdriver3          3
        optdriver4          4
           ppmfrq3     6.13713734E-01 Hartree
           ppmfrq4     0.00000000E+00 Hartree
          spgroup          57
           symrel      1  0  0   0  1  0   0  0  1      -1  0  0   0 -1  0   0  0 -1
                      -1  0  0   0  1  0   0  0 -1       1  0  0   0 -1  0   0  0  1
                      -1  0  0   0 -1  0   0  0  1       1  0  0   0  1  0   0  0 -1
                       1  0  0   0 -1  0   0  0 -1      -1  0  0   0  1  0   0  0  1
            tnons      0.0000000  0.0000000  0.0000000     0.0000000  0.0000000  0.0000000
                       0.5000000  0.5000000  0.0000000     0.5000000  0.5000000  0.0000000
                       0.0000000  0.5000000  0.0000000     0.0000000  0.5000000  0.0000000
                       0.5000000  0.0000000  0.0000000     0.5000000  0.0000000  0.0000000
           toldfe      1.00000000E-08 Hartree
           tolsym      1.00000000E-04
            typat      1  1  1  1  1  1  1  1  2  2  2  2  2  2  2  2
          usekden           1
          vcutgeo      1.0000000  1.0000000  0.0000000
              wtk        0.02778    0.05556    0.05556    0.02778    0.05556    0.11111
                         0.11111    0.05556    0.05556    0.11111    0.11111    0.05556
                         0.02778    0.05556    0.05556    0.02778
           xangst      4.2967919336E+00  4.4031208229E+00  1.9235223445E+01
                       3.2189838994E-01  4.9484536734E-01  1.8210776555E+01
                       1.9874467718E+00  4.9484536734E-01  1.8210776555E+01
                       2.6312435517E+00  4.4031208229E+00  1.9235223445E+01
                       2.6312435517E+00  1.9541377278E+00  1.8210776555E+01
                       1.9874467718E+00  2.9438284625E+00  1.9235223445E+01
                       3.2189838994E-01  2.9438284625E+00  1.9235223445E+01
                       4.2967919336E+00  1.9541377278E+00  1.8210776555E+01
                       2.3356357232E+00  2.4320779191E+00  1.6965378755E+01
                       2.2830546004E+00  2.4658882712E+00  2.0480621245E+01
                       2.6290561390E-02  2.4658882712E+00  2.0480621245E+01
                       4.5923997622E+00  2.4320779191E+00  1.6965378755E+01
                       4.5923997622E+00  4.8810610142E+00  2.0480621245E+01
                       2.6290561390E-02  1.6905176065E-02  1.6965378755E+01
                       2.2830546004E+00  1.6905176065E-02  1.6965378755E+01
                       2.3356357232E+00  4.8810610142E+00  2.0480621245E+01
            xcart      8.1197600045E+00  8.3206924853E+00  3.6349304416E+01
                       6.0829979960E-01  9.3512222240E-01  3.4413380356E+01
                       3.7557301025E+00  9.3512222240E-01  3.4413380356E+01
                       4.9723297016E+00  8.3206924853E+00  3.6349304416E+01
                       4.9723297016E+00  3.6927851314E+00  3.4413380356E+01
                       3.7557301025E+00  5.5630295763E+00  3.6349304416E+01
                       6.0829979960E-01  5.5630295763E+00  3.6349304416E+01
                       8.1197600045E+00  3.6927851314E+00  3.4413380356E+01
                       4.4137118630E+00  4.5959612009E+00  3.2059919588E+01
                       4.3143479412E+00  4.6598535068E+00  3.8702765184E+01
                       4.9681960906E-02  4.6598535068E+00  3.8702765184E+01
                       8.6783778432E+00  4.5959612009E+00  3.2059919588E+01
                       8.6783778432E+00  9.2238685547E+00  3.8702765184E+01
                       4.9681960906E-02  3.1946152990E-02  3.2059919588E+01
                       4.3143479412E+00  3.1946152990E-02  3.2059919588E+01
                       4.4137118630E+00  9.2238685547E+00  3.8702765184E+01
             xred      9.3030526678E-01  8.9896921536E-01  5.1367898962E-01
                       6.9694733222E-02  1.0103078464E-01  4.8632101038E-01
                       4.3030526678E-01  1.0103078464E-01  4.8632101038E-01
                       5.6969473322E-01  8.9896921536E-01  5.1367898962E-01
                       5.6969473322E-01  3.9896921536E-01  4.8632101038E-01
                       4.3030526678E-01  6.0103078464E-01  5.1367898962E-01
                       6.9694733222E-02  6.0103078464E-01  5.1367898962E-01
                       9.3030526678E-01  3.9896921536E-01  4.8632101038E-01
                       5.0569221133E-01  4.9654853149E-01  4.5306251015E-01
                       4.9430778867E-01  5.0345146851E-01  5.4693748985E-01
                       5.6922113300E-03  5.0345146851E-01  5.4693748985E-01
                       9.9430778867E-01  4.9654853149E-01  4.5306251015E-01
                       9.9430778867E-01  9.9654853149E-01  5.4693748985E-01
                       5.6922113300E-03  3.4514685091E-03  4.5306251015E-01
                       4.9430778867E-01  3.4514685091E-03  4.5306251015E-01
                       5.0569221133E-01  9.9654853149E-01  5.4693748985E-01
            znucl        6.00000    9.00000
 
================================================================================
 
 chkinp: Checking input parameters for consistency, jdtset=   3.
 
 chkinp: Checking input parameters for consistency, jdtset=   4.
 DATA TYPE INFORMATION: 
 REAL:      Data type name: REAL(DP) 
            Kind value:      8
            Precision:      15
            Smallest nonnegligible quantity relative to 1: 0.22204460E-015
            Smallest positive number:                      0.22250739E-307
            Largest representable number:                  0.17976931E+309
 INTEGER:   Data type name: INTEGER(default) 
            Kind value: 4
            Bit size:   32
            Largest representable number: 2147483647
 LOGICAL:   Data type name: LOGICAL 
            Kind value: 4
 CHARACTER: Data type name: CHARACTER             Kind value: 1

  ==== OpenMP parallelism is OFF ====
 
  ==== Using MPI-2 specifications ==== 
  MPI-IO support is ON
  xmpi_tag_ub ................       524287
  xmpi_bsize_ch ..............            1
  xmpi_bsize_int .............            4
  xmpi_bsize_sp ..............            4
  xmpi_bsize_dp ..............            8
  xmpi_bsize_spc .............            8
  xmpi_bsize_dpc .............           16
  xmpio_bsize_frm ............            4
  xmpi_address_kind ..........            8
  xmpi_offset_kind ...........            8
  MPI_WTICK ..................   3.448220283800461E-010
 
================================================================================
== DATASET  3 ==================================================================
-   mpi_nproc: 96, omp_nthreads: -1 (-1 if OMP is not activated)
 
 
--- !COMMENT
src_file: m_xgScalapack.F90
src_line: 236
message: |
    xgScalapack in auto mode
...
 
 mkfilename : getwfk/=0, take file _WFK from output of DATASET   2.
 
 
 getdim_nloc : deduce lmnmax  =   1, lnmax  =   1,
                      lmnmaxso=   4, lnmaxso=   2.
 Tran & Blaha 09
 F. Tran and P. Blaha, Phys. Rev. Lett. 102, 226401 (2009)
 Perdew & Wang
 J. P. Perdew and Y. Wang, Phys. Rev. B 45, 13244 (1992)
 
 SCREENING: Calculation of the susceptibility and dielectric matrices 
 
 Based on a program developped by R.W. Godby, V. Olevano, G. Onida, and L. Reining.
 Incorporated in ABINIT by V. Olevano, G.-M. Rignanese, and M. Torrent.
.Using single precision arithmetic ; gwpc =  4
 
 Unit cell volume ucvol=  5.7165850E+03 bohr^3
 Angles (23,13,12)=  9.00000000E+01  9.00000000E+01  9.00000000E+01 degrees
 
 getcut: wavevector=  0.0000  0.0000  0.0000  ngfft=  60  60 480
         ecut(hartree)=     50.000   => boxcut(ratio)=   2.03651
 
 ==== Dense FFT mesh used for densities and potentials ====
  FFT mesh divisions ........................    60   60  480
  Augmented FFT divisions ...................    61   61  480
  FFT algorithm .............................   512
  FFT cache size ............................    16
- pspini: atom type   1  psp file is ../6c.4.hgh
- pspatm: opening atomic psp file    ../6c.4.hgh
- Hartwigsen-Goedecker-Hutter psp for C,  from PRB58, 3641 (1998)
-  6.00000   4.00000     10605                znucl, zion, pspdat
    3    1    1    0      2001   0.00000      pspcod,pspxc,lmax,lloc,mmax,r2well
 
--- !WARNING
src_file: m_pspini.F90
src_line: 1039
message: |
    Pseudopotential file pspxc: 1, not equal to input ixc: -208012.
    These parameters must agree to get the same xc in ABINIT code as in psp construction.
    Action: check psp design or input file.
    Assume experienced user. Execution will continue.
...
 
 rloc=   0.3488300
 cc1 =  -8.5137710; cc2 =   1.2284320; cc3 =   0.0000000; cc4 =   0.0000000
 rrs =   0.3045530; h11s=   9.5228420; h22s=   0.0000000; h33s=   0.0000000
 rrp =   0.2326770; h11p=   0.0000000; h22p=   0.0000000; h33p=   0.0000000
                    k11p=   0.0041040; k22p=   0.0000000; k33p=   0.0000000
-  Local part computed in reciprocal space.
 
 pspatm : COMMENT -
  the projectors are not normalized,
  so that the KB energies are not consistent with 
  definition in PRB44, 8503 (1991). 
  However, this does not influence the results obtained hereafter.
  pspatm : epsatm=   -0.16969744
         --- l  ekb(1:nproj) -->
             0    0.953587
 pspatm: atomic psp has been read  and splines computed
 
- pspini: atom type   2  psp file is ../9f.7.hgh
- pspatm: opening atomic psp file    ../9f.7.hgh
- Hartwigsen-Goedecker-Hutter psp for F,  from PRB58, 3641 (1998)
-  9.00000   7.00000     10605                znucl, zion, pspdat
    3    1    1    0      2001   0.00000      pspcod,pspxc,lmax,lloc,mmax,r2well
 
--- !WARNING
src_file: m_pspini.F90
src_line: 1039
message: |
    Pseudopotential file pspxc: 1, not equal to input ixc: -208012.
    These parameters must agree to get the same xc in ABINIT code as in psp construction.
    Action: check psp design or input file.
    Assume experienced user. Execution will continue.
...
 
 rloc=   0.2185250
 cc1 = -21.3073610; cc2 =   3.0728690; cc3 =   0.0000000; cc4 =   0.0000000
 rrs =   0.1955670; h11s=  23.5849420; h22s=   0.0000000; h33s=   0.0000000
 rrp =   0.1742680; h11p=   0.0000000; h22p=   0.0000000; h33p=   0.0000000
                    k11p=   0.0151060; k22p=   0.0000000; k33p=   0.0000000
-  Local part computed in reciprocal space.
 
 pspatm : COMMENT -
  the projectors are not normalized,
  so that the KB energies are not consistent with 
  definition in PRB44, 8503 (1991). 
  However, this does not influence the results obtained hereafter.
  pspatm : epsatm=    0.11349172
         --- l  ekb(1:nproj) -->
             0    0.625355
 pspatm: atomic psp has been read  and splines computed
 
  -3.95688309E+01                                ecore*ucvol(ha*bohr**3)
 ==== Info on pseudopotentials ====
  Norm-conserving pseudopotentials
  Number of pseudopotentials ..    2
  Number of types of atoms   ..    2
  Calculation with spin-orbit coupling 
  Max number of channels (spin-orbit included)   3
  - Atom type    1 has spin-orbit characteristics (pspso=  0)
  - Atom type    2 has spin-orbit characteristics (pspso=  0)
  Nonlocal part applied using Legendre polynomials
  Max number of non-local projectors over l and type   1
  Highest angular momentum +1 .......   2
  Max number of (l,n)   components ..   2
  Max number of (l,m,n) components ..   2
 
 Info on the Q-grid used for form factors in spline form: 
   Number of q-points for radial functions ffspl ..  22525
   Number of q-points for vlspl ...................  22525
   vloc is computed in Reciprocal Space
   model core charge treated in real-space
 
  XC functional for type 1 is 1
  Pseudo valence available: no
  XC functional for type 2 is 1
  Pseudo valence available: no
 
 
 GW calculation type              =    0
 zcut to avoid poles in chi0 [eV] =   0.100000
 
 Reading eigenvalues from: 1F-2110_gw_o_DS2_WFK , with iomode: IO_MODE_MPI
 wfk_read_eigenvalues completed. cpu:  0.01 [s] , wall:  0.86 [s] <<< TIME
 
 Sorting g-vecs for an output of states on an unique "big" PW basis.
 Since the number of g's to be written on file
 was 0 or too large, it has been set to the max. value.,
 computed from the union of the sets of G vectors for the different k-points.
 Number of G-vectors is: *****
 
  ==== Info on the Cryst% object ====
 Real(R)+Recip(G) space primitive vectors, cartesian coordinates (Bohr,Bohr^-1):
 R(1)=  8.7280598  0.0000000  0.0000000  G(1)=  0.1145730  0.0000000  0.0000000
 R(2)=  0.0000000  9.2558147  0.0000000  G(2)=  0.0000000  0.1080402  0.0000000
 R(3)=  0.0000000  0.0000000 70.7626848  G(3)=  0.0000000  0.0000000  0.0141317
 Unit cell volume ucvol=  5.7165850E+03 bohr^3
 Angles (23,13,12)=  9.00000000E+01  9.00000000E+01  9.00000000E+01 degrees
 Time-reversal symmetry is present
 Reduced atomic positions [iatom, xred, symbol]:
    1)    0.9303053  0.8989692  0.5136790   C
    2)    0.0696947  0.1010308  0.4863210   C
    3)    0.4303053  0.1010308  0.4863210   C
    4)    0.5696947  0.8989692  0.5136790   C
    5)    0.5696947  0.3989692  0.4863210   C
    6)    0.4303053  0.6010308  0.5136790   C
    7)    0.0696947  0.6010308  0.5136790   C
    8)    0.9303053  0.3989692  0.4863210   C
    9)    0.5056922  0.4965485  0.4530625   F
   10)    0.4943078  0.5034515  0.5469375   F
   11)    0.0056922  0.5034515  0.5469375   F
   12)    0.9943078  0.4965485  0.4530625   F
   13)    0.9943078  0.9965485  0.5469375   F
   14)    0.0056922  0.0034515  0.4530625   F
   15)    0.4943078  0.0034515  0.4530625   F
   16)    0.5056922  0.9965485  0.5469375   F
 ==== K-mesh for the wavefunctions ====
 Number of points in the irreducible wedge :    16
 Reduced coordinates and weights : 
 
     1)     0.00000000E+00  0.00000000E+00  0.00000000E+00       0.02778
     2)     1.66666667E-01  0.00000000E+00  0.00000000E+00       0.05556
     3)     3.33333333E-01  0.00000000E+00  0.00000000E+00       0.05556
     4)     5.00000000E-01  0.00000000E+00  0.00000000E+00       0.02778
     5)     0.00000000E+00  1.66666667E-01  0.00000000E+00       0.05556
     6)     1.66666667E-01  1.66666667E-01  0.00000000E+00       0.11111
     7)     3.33333333E-01  1.66666667E-01  0.00000000E+00       0.11111
     8)     5.00000000E-01  1.66666667E-01  0.00000000E+00       0.05556
     9)     0.00000000E+00  3.33333333E-01  0.00000000E+00       0.05556
    10)     1.66666667E-01  3.33333333E-01  0.00000000E+00       0.11111
    11)     3.33333333E-01  3.33333333E-01  0.00000000E+00       0.11111
    12)     5.00000000E-01  3.33333333E-01  0.00000000E+00       0.05556
    13)     0.00000000E+00  5.00000000E-01  0.00000000E+00       0.02778
    14)     1.66666667E-01  5.00000000E-01  0.00000000E+00       0.05556
    15)     3.33333333E-01  5.00000000E-01  0.00000000E+00       0.05556
    16)     5.00000000E-01  5.00000000E-01  0.00000000E+00       0.02778
 
 Together with  8 symmetry operations and time-reversal symmetry 
 yields    36 points in the full Brillouin Zone.
 
 
 ==== Q-mesh for the screening function ====
 Number of points in the irreducible wedge :    16
 Reduced coordinates and weights : 
 
     1)     0.00000000E+00  0.00000000E+00  0.00000000E+00       0.02778
     2)     1.66666667E-01  0.00000000E+00  0.00000000E+00       0.05556
     3)     3.33333333E-01  0.00000000E+00  0.00000000E+00       0.05556
     4)     5.00000000E-01  0.00000000E+00  0.00000000E+00       0.02778
     5)     0.00000000E+00  1.66666667E-01  0.00000000E+00       0.05556
     6)     1.66666667E-01  1.66666667E-01  0.00000000E+00       0.11111
     7)     3.33333333E-01  1.66666667E-01  0.00000000E+00       0.11111
     8)     5.00000000E-01  1.66666667E-01  0.00000000E+00       0.05556
     9)     0.00000000E+00  3.33333333E-01  0.00000000E+00       0.05556
    10)     1.66666667E-01  3.33333333E-01  0.00000000E+00       0.11111
    11)     3.33333333E-01  3.33333333E-01  0.00000000E+00       0.11111
    12)     5.00000000E-01  3.33333333E-01  0.00000000E+00       0.05556
    13)     0.00000000E+00  5.00000000E-01  0.00000000E+00       0.02778
    14)     1.66666667E-01  5.00000000E-01  0.00000000E+00       0.05556
    15)     3.33333333E-01  5.00000000E-01  0.00000000E+00       0.05556
    16)     5.00000000E-01  5.00000000E-01  0.00000000E+00       0.02778
 
 Together with  8 symmetry operations and time-reversal symmetry 
 yields    36 points in the full Brillouin Zone.
 
 
 Optimal value for ng0sh: [1, 1, 0]
  Due to umklapp processes : ecutepspg0=    4.99762253419078     
 
 setmesh: npwwfn        =    96531; Max (m1,m2,m3)   =     13    14   112
          npweps/npwsigx=     3087; Max (mm1,mm2,mm3)=      5     5    35
          mG0 added     =   1  1  0
 calculated ecutwfn          =  49.989 [Ha] 
 calculated ecutsigx/ecuteps =   4.998 [Ha]
 using method =  2 with ecuteff =  86.599 [Ha]
 Finding a FFT mesh compatible with all the symmetries
 setmesh: divisor mesh 2 2 1
 setmesh: FFT mesh size selected  =    40x   40x  300
          total number of points  =       480000
 
  simple integral   18.1394888192118     
  q0 sphere :   1.205314655404145E-003  q0_vol cyl   1.181365200017570E-003
  spherical approximation    8254.97656704041     
  Cylindrical cutoff value    8566.35968315954     
 
 === Surface cutoff === 
 
  Cutoff radius ....................    35.3813 [Bohr] 
  Central plane passing through ....       0.00      0.00      0.00 (r.l.u) 
 
 q-points for optical limit:   1
     1)      0.000010    0.000020    0.000030
 
 ==== FFT mesh used for oscillator strengths ====
  FFT mesh divisions ........................    40   40  300
  Augmented FFT divisions ...................    41   41  300
  FFT algorithm .............................   512
  FFT cache size ............................    16
 Top of valence:  -7.7742 (eV)
 Bottom of conduction:  -3.6441 (eV)
 Fermi level: -5.7091  (eV) 
 
 Memory needed for Fourier components u(G):    578.2 [Mb] <<< MEM
 Storing wavefunctions in single precision array as `enable_gw_dpc="no"`
 Memory needed for real-space u(r):   2871.1 [Mb] <<< MEM
 Memory needed for bks_tab:      0.7 [Mb] <<< MEM
 wfd_init completed. cpu:  1.33 [s] , wall:  1.34 [s] <<< TIME
 ==== Info on the Wfd% object ====
  Number of irreducible k-points ........ 16
  Number of spinorial components ........ 1
  Number of spin-density components ..... 1
  Number of spin polarizations .......... 1
  Plane wave cutoff energy ..............  50.0
  Max number of G-vectors ............... 96664
  Total number of FFT points ............ 480000
  Number of FFT points treated by me .... 480000
 
 
 ==== FFT mesh for wavefunctions ====
  FFT mesh divisions ........................    40   40  300
  Augmented FFT divisions ...................    41   41  300
  FFT algorithm .............................   512
  FFT cache size ............................    16

 Total number of (b,k,s) states stored by this rank: 784
 Memory allocated for Fourier components u(G):    578.2 [Mb] <<< MEM
 Memory allocated for real-space u(r):      0.0 [Mb] <<< MEM
 Memory needed for wfd%s datastructure:      0.0 [Mb] <<< MEM
 Memory needed for wfd%s(0)%k datastructure:      0.0 [Mb] <<< MEM
 Memory allocated for Kdata array:      0.0 [Mb] <<< MEM



 wfd_read_wfk: Reading file: 1F-2110_gw_o_DS2_WFK  with iomode: IO_MODE_MPI , master_only: yes
 If MPI-IO is too slow, use the command line option `abinit --enforce-fortran-io ...` 
  to make the master proc read data with Fortran-IO and then broadcast (requires more memory)
 About to read: 784  (b, k, s) states in total.
 For spin: 1 , will read: 16  k-points.
 Reading k-point [1/16] spin [1/1] completed. cpu:  2.01 [s] , wall:  3.15 [s] <<< TIME
 Reading k-point [2/16] spin [1/1] completed. cpu:  1.74 [s] , wall:  3.16 [s] <<< TIME
 Reading k-point [3/16] spin [1/1] completed. cpu:  2.05 [s] , wall:  2.73 [s] <<< TIME
 Reading k-point [4/16] spin [1/1] completed. cpu:  2.15 [s] , wall:  2.63 [s] <<< TIME
 Reading k-point [5/16] spin [1/1] completed. cpu:  1.97 [s] , wall:  2.70 [s] <<< TIME
 Reading k-point [6/16] spin [1/1] completed. cpu:  2.00 [s] , wall:  2.90 [s] <<< TIME
 Reading k-point [7/16] spin [1/1] completed. cpu:  2.02 [s] , wall:  2.86 [s] <<< TIME
 Reading k-point [8/16] spin [1/1] completed. cpu:  1.91 [s] , wall:  2.51 [s] <<< TIME
 Reading k-point [9/16] spin [1/1] completed. cpu:  1.95 [s] , wall:  2.64 [s] <<< TIME
 Reading k-point [10/16] spin [1/1] completed. cpu:  1.95 [s] , wall:  2.70 [s] <<< TIME
 WFK IO completed. cpu: 32.02 [s] , wall: 44.63 [s] <<< TIME
 
 
  CHECK           -1         480
 planewave contribution to nelect:   88.0000
 planewave contribution to nelect:  171.9292
 Number of electrons calculated from density =   88.0000; Expected =   88.0000
 average of density, n =  0.015394
 r_s =    2.4938
 omega_plasma =   11.9682 [eV]
 
 Total charge density [el/Bohr^3]
      Maximum=    1.7591E+00  at reduced coord.    0.5333    0.9667    0.5500
      Minimum=    3.3372E-08  at reduced coord.    0.7500    0.6833    0.0417
   Integrated=    8.8000E+01
 Total kinetic energy density [Ha/Bohr^3]
      Maximum=    3.3012E+01  at reduced coord.    0.5000    0.5000    0.5479
      Minimum=    1.8102E-06  at reduced coord.    0.1167    0.7333    0.0396
   Integrated=    1.7193E+02
 
 1/G**2 cut-off applied in the following step : cutoff-mode = CRYSTAL
 
 1/G**2 cut-off applied in the following step : cutoff-mode = CRYSTAL
 
 1/G**2 cut-off applied in the following step : cutoff-mode = CRYSTAL
 
In the mGGA functional TB09, c =  0.839668
 
 calculating chi0 at frequencies [eV] :
  1    0.000000E+00    0.000000E+00
  2    0.000000E+00    1.670000E+01
 Memory required for chi0 matrix=        145.4 [Mb].
 
 
--------------------------------------------------------------------------------
  q-point number  1        q = ( 0.000000, 0.000000, 0.000000) [r.l.u.]
--------------------------------------------------------------------------------
 Q-points for long wave-length limit. #   1
     1)      0.000010    0.000020    0.000030
 
 Using spectral method for the imaginary part =  0
 Using symmetries to sum only over the IBZ_q  =  1
 Using faster algorithm based on time reversal symmetry.
 Will sum 3520 (b,b',k,s) states in chi0q0.
 Calculating chi0(q=(0,0,0),omega,G,G")
 
 ==== Little Group Info ==== 
  External point   0.00000000E+00  0.00000000E+00  0.00000000E+00
  Number of points in the IBZ defined by little group     16/   36
  Number of operations in the little group :  16/  8
 
  No time-reversal symmetry with zero umklapp:  8
  No time-reversal symmetry with non-zero umklapp:  0
 
 
  time-reversal symmetry with zero umklapp:  8
  time-reversal symmetry with non-zero umklapp:  0
 
 Calculation status (     16 to be completed):
 ik=    1/  36 spin= 1 done by mpi rank:  0
 ik=    2/  36 spin= 1 done by mpi rank:  0
 ik=    4/  36 spin= 1 done by mpi rank:  0
 ik=    6/  36 spin= 1 done by mpi rank:  0
 ik=    7/  36 spin= 1 done by mpi rank:  0
 ik=    9/  36 spin= 1 done by mpi rank:  0
 ik=   13/  36 spin= 1 done by mpi rank:  0
 ik=   17/  36 spin= 1 done by mpi rank:  0
 ik=   19/  36 spin= 1 done by mpi rank:  0
 ik=   21/  36 spin= 1 done by mpi rank:  0
 ik=   25/  36 spin= 1 done by mpi rank:  0
 ik=   29/  36 spin= 1 done by mpi rank:  0
 ik=   31/  36 spin= 1 done by mpi rank:  0
 ik=   32/  36 spin= 1 done by mpi rank:  0
 ik=   34/  36 spin= 1 done by mpi rank:  0
 ik=   36/  36 spin= 1 done by mpi rank:  0
 cpu_time =     202.6, wall_time =     203.7
  chi0(G,G') at the    1 th omega   0.0000   0.0000 [eV]
  chi0(q =  1, omega =   1, G,G')
       1       2       3       4       5       6       7       8       9
    1  -0.000   0.000  -0.000  -0.000   0.000   0.000  -0.000  -0.000   0.000
       -0.000  -0.000   0.000   0.000  -0.000  -0.000   0.000   0.000  -0.000
 
    2   0.000  -1.274   1.192   2.462  -2.151  -3.409   2.766   3.998  -2.980
        0.000   0.000  -0.000   0.000   0.000  -0.000  -0.000   0.000   0.000
 
    3  -0.000   1.192  -1.274  -2.151   2.462   2.766  -3.409  -2.980   3.998
       -0.000   0.000   0.000   0.000   0.000   0.000  -0.000   0.000   0.000
 
    4  -0.000   2.462  -2.151  -4.919   3.737   7.051  -4.597  -8.580   4.689
       -0.000  -0.000  -0.000   0.000  -0.000   0.000  -0.000   0.000   0.000
 
    5   0.000  -2.151   2.462   3.737  -4.919  -4.597   7.051   4.689  -8.580
        0.000  -0.000  -0.000   0.000   0.000  -0.000   0.000   0.000  -0.000
 
    6   0.000  -3.409   2.766   7.051  -4.597 -10.460   5.358  13.189  -5.083
        0.000   0.000  -0.000  -0.000   0.000   0.000   0.000  -0.000  -0.000
 
    7  -0.000   2.766  -3.409  -4.597   7.051   5.358 -10.460  -5.083  13.189
       -0.000   0.000   0.000   0.000  -0.000  -0.000   0.000  -0.000  -0.000
 
    8  -0.000   3.998  -2.980  -8.580   4.689  13.189  -5.083 -17.235   4.318
       -0.000  -0.000  -0.000  -0.000  -0.000   0.000   0.000   0.000   0.000
 
    9   0.000  -2.980   3.998   4.689  -8.580  -5.083  13.189   4.318 -17.235
        0.000  -0.000  -0.000  -0.000   0.000   0.000   0.000  -0.000   0.000
 
  chi0(G,G') at the    2 th omega   0.0000  16.7000 [eV]
  chi0(q =  1, omega =   2, G,G')
       1       2       3       4       5       6       7       8       9
    1  -0.000   0.000  -0.000  -0.000   0.000   0.000  -0.000  -0.000   0.000
       -0.000  -0.000   0.000   0.000  -0.000   0.000   0.000   0.000  -0.000
 
    2   0.000  -0.550   0.504   1.065  -0.889  -1.469   1.107   1.703  -1.134
        0.000   0.000  -0.000   0.000   0.000  -0.000  -0.000   0.000   0.000
 
    3  -0.000   0.504  -0.550  -0.889   1.065   1.107  -1.469  -1.134   1.703
       -0.000   0.000   0.000   0.000   0.000  -0.000  -0.000   0.000   0.000
 
    4  -0.000   1.065  -0.889  -2.154   1.487   3.108  -1.729  -3.784   1.613
       -0.000  -0.000  -0.000   0.000  -0.000   0.000  -0.000   0.000   0.000
 
    5   0.000  -0.889   1.065   1.487  -2.154  -1.729   3.108   1.613  -3.784
        0.000  -0.000  -0.000   0.000   0.000  -0.000   0.000   0.000   0.000
 
    6   0.000  -1.469   1.107   3.108  -1.729  -4.686   1.831   5.971  -1.465
       -0.000   0.000   0.000  -0.000   0.000   0.000  -0.000  -0.000  -0.000
 
    7  -0.000   1.107  -1.469  -1.729   3.108   1.831  -4.686  -1.465   5.971
       -0.000   0.000   0.000   0.000  -0.000   0.000   0.000  -0.000  -0.000
 
    8  -0.000   1.703  -1.134  -3.784   1.613   5.971  -1.465  -7.956   0.819
       -0.000  -0.000  -0.000  -0.000  -0.000   0.000   0.000   0.000   0.000
 
    9   0.000  -1.134   1.703   1.613  -3.784  -1.465   5.971   0.819  -7.956
        0.000  -0.000  -0.000  -0.000  -0.000   0.000   0.000  -0.000   0.000
 
 Analyzing long wavelength limit for several q
 For q-point:  0.000010 0.000020 0.000030
  dielectric constant =   1.0002
  dielectric constant without local fields =   1.0002
 
  Average fulfillment of the sum rule on Im[epsilon] for q-point    1 :    140.34  [%]
 
 
--------------------------------------------------------------------------------
  q-point number  2        q = ( 0.166667, 0.000000, 0.000000) [r.l.u.]
--------------------------------------------------------------------------------
 Using spectral method for the imaginary part =  0
 Using symmetries to sum only over the IBZ_q  =  1
 Using faster algorithm based on time reversal symmetry.
 Will sum 5280 (b,b',k,s) states in chi0.
 Calculating chi0(q,omega,G,G")
 
 ==== Little Group Info ==== 
  External point   1.66666667E-01  0.00000000E+00  0.00000000E+00
  Number of points in the IBZ defined by little group     24/   36
  Number of operations in the little group :   8/  8
 
  No time-reversal symmetry with zero umklapp:  4
  No time-reversal symmetry with non-zero umklapp:  0
 
 
  time-reversal symmetry with zero umklapp:  4
  time-reversal symmetry with non-zero umklapp:  0
 
 Calculation status :     24 to be completed
 ik=    1/  36 spin=  1 done by mpi rank:  0
 ik=    2/  36 spin=  1 done by mpi rank:  0
 ik=    3/  36 spin=  1 done by mpi rank:  0
 ik=    4/  36 spin=  1 done by mpi rank:  0
 ik=    5/  36 spin=  1 done by mpi rank:  0
 ik=    6/  36 spin=  1 done by mpi rank:  0
 ik=    7/  36 spin=  1 done by mpi rank:  0
 ik=    9/  36 spin=  1 done by mpi rank:  0
 ik=   10/  36 spin=  1 done by mpi rank:  0
 ik=   13/  36 spin=  1 done by mpi rank:  0
 ik=   14/  36 spin=  1 done by mpi rank:  0
 ik=   17/  36 spin=  1 done by mpi rank:  0
 ik=   19/  36 spin=  1 done by mpi rank:  0
 ik=   21/  36 spin=  1 done by mpi rank:  0
 ik=   22/  36 spin=  1 done by mpi rank:  0
 ik=   25/  36 spin=  1 done by mpi rank:  0
 ik=   26/  36 spin=  1 done by mpi rank:  0
 ik=   29/  36 spin=  1 done by mpi rank:  0
 ik=   31/  36 spin=  1 done by mpi rank:  0
 ik=   32/  36 spin=  1 done by mpi rank:  0
 ik=   33/  36 spin=  1 done by mpi rank:  0
 ik=   34/  36 spin=  1 done by mpi rank:  0
 ik=   35/  36 spin=  1 done by mpi rank:  0
 ik=   36/  36 spin=  1 done by mpi rank:  0
 cpu_time =     227.4, wall_time =     228.7
  chi0(G,G') at the    1 th omega   0.0000   0.0000 [eV]
  chi0(q =  2, omega =   1, G,G')
       1       2       3       4       5       6       7       8       9
    1  -2.423   2.375   2.375  -2.237  -2.237   2.020   2.020  -1.746  -1.746
        0.000  -0.000  -0.000   0.000  -0.000  -0.000   0.000   0.000  -0.000
 
    2   2.375  -3.645  -1.094   4.736  -0.040  -5.504   0.897   5.848  -1.400
        0.000   0.000  -0.000  -0.000   0.000   0.000  -0.000  -0.000   0.000
 
    3   2.375  -1.094  -3.645  -0.040   4.736   0.897  -5.504  -1.400   5.848
        0.000   0.000   0.000  -0.000   0.000   0.000  -0.000  -0.000   0.000
 
    4  -2.237   4.736  -0.040  -7.142   1.825   9.138  -2.942 -10.461   3.324
       -0.000   0.000   0.000   0.000  -0.000  -0.000   0.000   0.000  -0.000
 
    5  -2.237  -0.040   4.736   1.825  -7.142  -2.942   9.138   3.324 -10.461
        0.000  -0.000  -0.000   0.000   0.000  -0.000   0.000   0.000  -0.000
 
    6   2.020  -5.504   0.897   9.138  -2.942 -12.458   3.960  15.027  -3.962
        0.000  -0.000  -0.000   0.000   0.000   0.000  -0.000   0.000   0.000
 
    7   2.020   0.897  -5.504  -2.942   9.138   3.960 -12.458  -3.962  15.027
       -0.000   0.000   0.000  -0.000  -0.000   0.000   0.000  -0.000  -0.000
 
    8  -1.746   5.848  -1.400 -10.461   3.324  15.027  -3.962 -18.962   3.445
       -0.000   0.000   0.000  -0.000  -0.000  -0.000   0.000   0.000  -0.000
 
    9  -1.746  -1.400   5.848   3.324 -10.461  -3.962  15.027   3.445 -18.962
        0.000  -0.000  -0.000   0.000   0.000  -0.000   0.000   0.000   0.000
 
  chi0(G,G') at the    2 th omega   0.0000  16.7000 [eV]
  chi0(q =  2, omega =   2, G,G')
       1       2       3       4       5       6       7       8       9
    1  -0.906   0.885   0.885  -0.824  -0.824   0.729   0.729  -0.610  -0.610
        0.000  -0.000  -0.000   0.000  -0.000  -0.000   0.000   0.000  -0.000
 
    2   0.885  -1.445  -0.331   1.928  -0.141  -2.263   0.472   2.397  -0.631
        0.000   0.000  -0.000  -0.000   0.000   0.000  -0.000  -0.000   0.000
 
    3   0.885  -0.331  -1.445  -0.141   1.928   0.472  -2.263  -0.631   2.397
        0.000   0.000   0.000   0.000   0.000   0.000  -0.000  -0.000   0.000
 
    4  -0.824   1.928  -0.141  -3.017   0.844   3.930  -1.212  -4.530   1.230
       -0.000   0.000  -0.000   0.000  -0.000  -0.000  -0.000   0.000   0.000
 
    5  -0.824  -0.141   1.928   0.844  -3.017  -1.212   3.930   1.229  -4.530
        0.000  -0.000  -0.000   0.000   0.000  -0.000   0.000   0.000  -0.000
 
    6   0.729  -2.263   0.472   3.930  -1.212  -5.497   1.442   6.734  -1.204
        0.000  -0.000  -0.000   0.000   0.000   0.000  -0.000  -0.000   0.000
 
    7   0.729   0.472  -2.263  -1.212   3.930   1.442  -5.497  -1.204   6.734
       -0.000   0.000   0.000   0.000  -0.000   0.000   0.000  -0.000  -0.000
 
    8  -0.610   2.397  -0.631  -4.530   1.229   6.734  -1.204  -8.701   0.671
       -0.000   0.000   0.000  -0.000  -0.000   0.000   0.000   0.000  -0.000
 
    9  -0.610  -0.631   2.397   1.230  -4.530  -1.204   6.734   0.671  -8.701
        0.000  -0.000  -0.000  -0.000   0.000  -0.000   0.000   0.000   0.000
 
  Average fulfillment of the sum rule on Im[epsilon] for q-point    2 :     69.24  [%]
 
 
--------------------------------------------------------------------------------
  q-point number  3        q = ( 0.333333, 0.000000, 0.000000) [r.l.u.]
--------------------------------------------------------------------------------
 Using spectral method for the imaginary part =  0
 Using symmetries to sum only over the IBZ_q  =  1
 Using faster algorithm based on time reversal symmetry.
 Will sum 5280 (b,b',k,s) states in chi0.
 Calculating chi0(q,omega,G,G")
 
 ==== Little Group Info ==== 
  External point   3.33333333E-01  0.00000000E+00  0.00000000E+00
  Number of points in the IBZ defined by little group     24/   36
  Number of operations in the little group :   8/  8
 
  No time-reversal symmetry with zero umklapp:  4
  No time-reversal symmetry with non-zero umklapp:  0
 
 
  time-reversal symmetry with zero umklapp:  4
  time-reversal symmetry with non-zero umklapp:  0
 
 Calculation status :     24 to be completed
 ik=    1/  36 spin=  1 done by mpi rank:  0
 ik=    2/  36 spin=  1 done by mpi rank:  0
 ik=    3/  36 spin=  1 done by mpi rank:  0
 ik=    4/  36 spin=  1 done by mpi rank:  0
 ik=    5/  36 spin=  1 done by mpi rank:  0
 ik=    6/  36 spin=  1 done by mpi rank:  0
 ik=    7/  36 spin=  1 done by mpi rank:  0
 ik=    9/  36 spin=  1 done by mpi rank:  0
 ik=   10/  36 spin=  1 done by mpi rank:  0
 ik=   13/  36 spin=  1 done by mpi rank:  0
 ik=   14/  36 spin=  1 done by mpi rank:  0
 ik=   17/  36 spin=  1 done by mpi rank:  0
 ik=   19/  36 spin=  1 done by mpi rank:  0
 ik=   21/  36 spin=  1 done by mpi rank:  0
 ik=   22/  36 spin=  1 done by mpi rank:  0
 ik=   25/  36 spin=  1 done by mpi rank:  0
 ik=   26/  36 spin=  1 done by mpi rank:  0
 ik=   29/  36 spin=  1 done by mpi rank:  0
 ik=   31/  36 spin=  1 done by mpi rank:  0
 ik=   32/  36 spin=  1 done by mpi rank:  0
 ik=   33/  36 spin=  1 done by mpi rank:  0
 ik=   34/  36 spin=  1 done by mpi rank:  0
 ik=   35/  36 spin=  1 done by mpi rank:  0
 ik=   36/  36 spin=  1 done by mpi rank:  0
 cpu_time =     227.4, wall_time =     228.7
  chi0(G,G') at the    1 th omega   0.0000   0.0000 [eV]
  chi0(q =  3, omega =   1, G,G')
       1       2       3       4       5       6       7       8       9
    1  -8.644   8.471   8.471  -7.970  -7.970   7.188   7.188  -6.199  -6.199
        0.000  -0.000  -0.000  -0.000  -0.000  -0.000   0.000   0.000  -0.000
 
    2   8.471  -9.742  -6.945  10.592   5.344 -10.901  -3.842  10.612   2.577
        0.000   0.000  -0.000   0.000   0.000   0.000  -0.000  -0.000   0.000
 
    3   8.471  -6.945  -9.742   5.344  10.592  -3.842 -10.901   2.577  10.612
        0.000   0.000   0.000   0.000   0.000   0.000  -0.000  -0.000   0.000
 
    4  -7.970  10.592   5.344 -12.885  -3.015  14.546   1.211 -15.346  -0.059
        0.000  -0.000  -0.000   0.000  -0.000  -0.000   0.000   0.000  -0.000
 
    5  -7.970   5.344  10.592  -3.015 -12.885   1.211  14.546  -0.059 -15.346
        0.000  -0.000  -0.000   0.000   0.000  -0.000   0.000   0.000  -0.000
 
    6   7.188 -10.901  -3.842  14.546   1.211 -17.662   0.500  19.835  -1.238
        0.000  -0.000  -0.000   0.000   0.000   0.000  -0.000   0.000   0.000
 
    7   7.188  -3.842 -10.901   1.211  14.546   0.500 -17.662  -1.238  19.835
       -0.000   0.000   0.000  -0.000  -0.000   0.000   0.000  -0.000   0.000
 
    8  -6.199  10.612   2.577 -15.346  -0.059  19.835  -1.238 -23.507   1.386
       -0.000   0.000   0.000  -0.000  -0.000  -0.000   0.000   0.000  -0.000
 
    9  -6.199   2.577  10.612  -0.059 -15.346  -1.238  19.835   1.386 -23.507
        0.000  -0.000  -0.000   0.000   0.000  -0.000  -0.000   0.000   0.000
 
  chi0(G,G') at the    2 th omega   0.0000  16.7000 [eV]
  chi0(q =  3, omega =   2, G,G')
       1       2       3       4       5       6       7       8       9
    1  -3.478   3.397   3.397  -3.162  -3.162   2.796   2.796  -2.335  -2.335
        0.000  -0.000  -0.000  -0.000  -0.000  -0.000   0.000   0.000  -0.000
 
    2   3.397  -3.986  -2.698   4.379   1.978  -4.515  -1.320   4.363   0.787
        0.000   0.000  -0.000   0.000   0.000   0.000  -0.000  -0.000   0.000
 
    3   3.397  -2.698  -3.986   1.978   4.379  -1.320  -4.515   0.787   4.363
        0.000   0.000   0.000   0.000   0.000   0.000  -0.000  -0.000   0.000
 
    4  -3.162   4.379   1.978  -5.466  -0.971   6.264   0.244  -6.650   0.156
        0.000  -0.000  -0.000   0.000  -0.000  -0.000   0.000   0.000   0.000
 
    5  -3.162   1.978   4.379  -0.971  -5.466   0.244   6.264   0.156  -6.650
        0.000  -0.000  -0.000   0.000   0.000  -0.000   0.000   0.000  -0.000
 
    6   2.796  -4.515  -1.320   6.264   0.244  -7.803   0.354   8.907  -0.480
        0.000  -0.000  -0.000   0.000   0.000   0.000  -0.000  -0.000   0.000
 
    7   2.796  -1.320  -4.515   0.244   6.264   0.354  -7.803  -0.480   8.907
       -0.000   0.000   0.000  -0.000  -0.000   0.000   0.000  -0.000  -0.000
 
    8  -2.335   4.363   0.787  -6.650   0.156   8.907  -0.480 -10.823   0.270
       -0.000   0.000   0.000  -0.000  -0.000   0.000   0.000   0.000  -0.000
 
    9  -2.335   0.787   4.363   0.156  -6.650  -0.480   8.907   0.270 -10.823
        0.000  -0.000  -0.000  -0.000   0.000  -0.000   0.000   0.000   0.000
 
  Average fulfillment of the sum rule on Im[epsilon] for q-point    3 :     64.07  [%]
 
 
--------------------------------------------------------------------------------
  q-point number  4        q = ( 0.500000, 0.000000, 0.000000) [r.l.u.]
--------------------------------------------------------------------------------
 Using spectral method for the imaginary part =  0
 Using symmetries to sum only over the IBZ_q  =  1
 Using faster algorithm based on time reversal symmetry.
 Will sum 5280 (b,b',k,s) states in chi0.
 Calculating chi0(q,omega,G,G")
 
 ==== Little Group Info ==== 
  External point   5.00000000E-01  0.00000000E+00  0.00000000E+00
  Number of points in the IBZ defined by little group     24/   36
  Number of operations in the little group :   8/  8
 
  No time-reversal symmetry with zero umklapp:  4
  No time-reversal symmetry with non-zero umklapp:  0
 
 
  time-reversal symmetry with zero umklapp:  4
  time-reversal symmetry with non-zero umklapp:  0
 
 Calculation status :     24 to be completed
 ik=    1/  36 spin=  1 done by mpi rank:  0
 ik=    2/  36 spin=  1 done by mpi rank:  0
 ik=    3/  36 spin=  1 done by mpi rank:  0
 ik=    4/  36 spin=  1 done by mpi rank:  0
 ik=    5/  36 spin=  1 done by mpi rank:  0
 ik=    6/  36 spin=  1 done by mpi rank:  0
 ik=    7/  36 spin=  1 done by mpi rank:  0
 ik=    9/  36 spin=  1 done by mpi rank:  0
 ik=   10/  36 spin=  1 done by mpi rank:  0
 ik=   13/  36 spin=  1 done by mpi rank:  0
 ik=   14/  36 spin=  1 done by mpi rank:  0
 ik=   17/  36 spin=  1 done by mpi rank:  0
 ik=   19/  36 spin=  1 done by mpi rank:  0
 ik=   21/  36 spin=  1 done by mpi rank:  0
 ik=   22/  36 spin=  1 done by mpi rank:  0
 ik=   25/  36 spin=  1 done by mpi rank:  0
 ik=   26/  36 spin=  1 done by mpi rank:  0
 ik=   29/  36 spin=  1 done by mpi rank:  0
 ik=   31/  36 spin=  1 done by mpi rank:  0
 ik=   32/  36 spin=  1 done by mpi rank:  0
 ik=   33/  36 spin=  1 done by mpi rank:  0
 ik=   34/  36 spin=  1 done by mpi rank:  0
 ik=   35/  36 spin=  1 done by mpi rank:  0
 ik=   36/  36 spin=  1 done by mpi rank:  0
 cpu_time =     227.1, wall_time =     228.3
  chi0(G,G') at the    1 th omega   0.0000   0.0000 [eV]
  chi0(q =  4, omega =   1, G,G')
       1       2       3       4       5       6       7       8       9
    1 -16.546  16.208  16.208 -15.228 -15.228  13.700  13.700 -11.769 -11.769
        0.000  -0.000  -0.000  -0.000  -0.000  -0.000   0.000   0.000  -0.000
 
    2  16.208 -17.507 -14.333  18.062  12.093 -17.786  -9.723  16.680   7.440
        0.000   0.000   0.000   0.000   0.000   0.000  -0.000  -0.000   0.000
 
    3  16.208 -14.333 -17.507  12.093  18.062  -9.723 -17.786   7.440  16.680
        0.000  -0.000   0.000   0.000   0.000   0.000  -0.000  -0.000   0.000
 
    4 -15.228  18.062  12.093 -20.254  -9.004  21.515   6.258 -21.659  -4.069
        0.000  -0.000  -0.000   0.000  -0.000  -0.000   0.000   0.000  -0.000
 
    5 -15.228  12.093  18.062  -9.004 -20.254   6.258  21.515  -4.069 -21.659
        0.000  -0.000  -0.000   0.000   0.000  -0.000   0.000   0.000  -0.000
 
    6  13.700 -17.786  -9.723  21.515   6.258 -24.423  -3.588  26.124   1.853
        0.000  -0.000  -0.000   0.000   0.000   0.000  -0.000  -0.000   0.000
 
    7  13.700  -9.723 -17.786   6.258  21.515  -3.588 -24.423   1.853  26.124
       -0.000   0.000   0.000  -0.000  -0.000   0.000   0.000  -0.000  -0.000
 
    8 -11.769  16.680   7.440 -21.659  -4.069  26.124   1.853 -29.513  -0.801
       -0.000   0.000   0.000  -0.000  -0.000   0.000   0.000   0.000  -0.000
 
    9 -11.769   7.440  16.680  -4.069 -21.659   1.853  26.124  -0.801 -29.513
        0.000  -0.000  -0.000   0.000   0.000  -0.000   0.000   0.000   0.000
 
  chi0(G,G') at the    2 th omega   0.0000  16.7000 [eV]
  chi0(q =  4, omega =   2, G,G')
       1       2       3       4       5       6       7       8       9
    1  -7.332   7.160   7.160  -6.659  -6.659   5.881   5.881  -4.902  -4.902
        0.000  -0.000  -0.000  -0.000  -0.000  -0.000   0.000   0.000  -0.000
 
    2   7.160  -7.794  -6.237   8.053   5.139  -7.890  -3.983   7.304   2.881
        0.000   0.000   0.000   0.000   0.000   0.000  -0.000  -0.000   0.000
 
    3   7.160  -6.237  -7.794   5.139   8.053  -3.983  -7.890   2.881   7.304
        0.000  -0.000   0.000   0.000   0.000   0.000  -0.000  -0.000   0.000
 
    4  -6.659   8.053   5.139  -9.142  -3.667   9.769   2.392  -9.831  -1.411
        0.000  -0.000  -0.000   0.000  -0.000  -0.000   0.000   0.000  -0.000
 
    5  -6.659   5.139   8.053  -3.667  -9.142   2.392   9.769  -1.411  -9.831
        0.000  -0.000  -0.000   0.000   0.000  -0.000   0.000   0.000  -0.000
 
    6   5.881  -7.890  -3.983   9.769   2.392 -11.270  -1.234  12.176   0.554
        0.000  -0.000  -0.000   0.000   0.000   0.000  -0.000  -0.000   0.000
 
    7   5.881  -3.983  -7.890   2.392   9.769  -1.234 -11.270   0.554  12.176
       -0.000   0.000   0.000  -0.000  -0.000   0.000   0.000  -0.000  -0.000
 
    8  -4.902   7.304   2.881  -9.831  -1.411  12.176   0.554 -14.022  -0.272
       -0.000   0.000   0.000  -0.000  -0.000   0.000   0.000   0.000  -0.000
 
    9  -4.902   2.881   7.304  -1.411  -9.831   0.554  12.176  -0.272 -14.022
        0.000  -0.000  -0.000   0.000   0.000  -0.000   0.000   0.000   0.000
 
  Average fulfillment of the sum rule on Im[epsilon] for q-point    4 :     62.53  [%]
 
 
--------------------------------------------------------------------------------
  q-point number  5        q = ( 0.000000, 0.166667, 0.000000) [r.l.u.]
--------------------------------------------------------------------------------
 Using spectral method for the imaginary part =  0
 Using symmetries to sum only over the IBZ_q  =  1
 Using faster algorithm based on time reversal symmetry.
 Will sum 5280 (b,b',k,s) states in chi0.
 Calculating chi0(q,omega,G,G")
 
 ==== Little Group Info ==== 
  External point   0.00000000E+00  1.66666667E-01  0.00000000E+00
  Number of points in the IBZ defined by little group     24/   36
  Number of operations in the little group :   8/  8
 
  No time-reversal symmetry with zero umklapp:  4
  No time-reversal symmetry with non-zero umklapp:  0
 
 
  time-reversal symmetry with zero umklapp:  4
  time-reversal symmetry with non-zero umklapp:  0
 
 Calculation status :     24 to be completed
 ik=    1/  36 spin=  1 done by mpi rank:  0
 ik=    2/  36 spin=  1 done by mpi rank:  0
 ik=    4/  36 spin=  1 done by mpi rank:  0
 ik=    6/  36 spin=  1 done by mpi rank:  0
 ik=    7/  36 spin=  1 done by mpi rank:  0
 ik=    8/  36 spin=  1 done by mpi rank:  0
 ik=    9/  36 spin=  1 done by mpi rank:  0
 ik=   10/  36 spin=  1 done by mpi rank:  0
 ik=   13/  36 spin=  1 done by mpi rank:  0
 ik=   14/  36 spin=  1 done by mpi rank:  0
 ik=   17/  36 spin=  1 done by mpi rank:  0
 ik=   18/  36 spin=  1 done by mpi rank:  0
 ik=   19/  36 spin=  1 done by mpi rank:  0
 ik=   20/  36 spin=  1 done by mpi rank:  0
 ik=   21/  36 spin=  1 done by mpi rank:  0
 ik=   22/  36 spin=  1 done by mpi rank:  0
 ik=   25/  36 spin=  1 done by mpi rank:  0
 ik=   26/  36 spin=  1 done by mpi rank:  0
 ik=   29/  36 spin=  1 done by mpi rank:  0
 ik=   30/  36 spin=  1 done by mpi rank:  0
 ik=   31/  36 spin=  1 done by mpi rank:  0
 ik=   32/  36 spin=  1 done by mpi rank:  0
 ik=   34/  36 spin=  1 done by mpi rank:  0
 ik=   36/  36 spin=  1 done by mpi rank:  0
 cpu_time =     228.1, wall_time =     229.4
  chi0(G,G') at the    1 th omega   0.0000   0.0000 [eV]
  chi0(q =  5, omega =   1, G,G')
       1       2       3       4       5       6       7       8       9
    1  -1.963   1.919   1.919  -1.792  -1.792   1.593   1.593  -1.343  -1.343
        0.000  -0.000  -0.000   0.000  -0.000  -0.000   0.000   0.000  -0.000
 
    2   1.919  -3.182  -0.652   4.275  -0.461  -5.053   1.293   5.414  -1.767
        0.000   0.000  -0.000   0.000   0.000  -0.000  -0.000   0.000   0.000
 
    3   1.919  -0.652  -3.182  -0.461   4.275   1.293  -5.053  -1.767   5.414
        0.000   0.000   0.000   0.000   0.000   0.000  -0.000   0.000   0.000
 
    4  -1.792   4.275  -0.461  -6.673   2.218   8.670  -3.303 -10.003   3.651
       -0.000  -0.000  -0.000   0.000  -0.000  -0.000  -0.000   0.000   0.000
 
    5  -1.792  -0.461   4.275   2.218  -6.673  -3.303   8.670   3.651 -10.003
        0.000  -0.000  -0.000   0.000   0.000  -0.000   0.000   0.000  -0.000
 
    6   1.593  -5.053   1.293   8.670  -3.303 -11.983   4.284  14.555  -4.249
        0.000   0.000  -0.000   0.000   0.000   0.000  -0.000  -0.000  -0.000
 
    7   1.593   1.293  -5.053  -3.303   8.670   4.284 -11.983  -4.249  14.555
       -0.000   0.000   0.000   0.000  -0.000   0.000   0.000  -0.000  -0.000
 
    8  -1.343   5.414  -1.767 -10.003   3.651  14.555  -4.249 -18.486   3.695
       -0.000  -0.000  -0.000  -0.000  -0.000   0.000   0.000   0.000  -0.000
 
    9  -1.343  -1.767   5.414   3.651 -10.003  -4.249  14.555   3.695 -18.486
        0.000  -0.000  -0.000  -0.000   0.000   0.000   0.000   0.000   0.000
 
  chi0(G,G') at the    2 th omega   0.0000  16.7000 [eV]
  chi0(q =  5, omega =   2, G,G')
       1       2       3       4       5       6       7       8       9
    1  -0.808   0.788   0.788  -0.732  -0.732   0.645   0.645  -0.535  -0.535
        0.000  -0.000  -0.000   0.000  -0.000  -0.000   0.000   0.000  -0.000
 
    2   0.788  -1.346  -0.239   1.831  -0.225  -2.170   0.547   2.311  -0.694
        0.000   0.000  -0.000   0.000   0.000  -0.000  -0.000   0.000   0.000
 
    3   0.788  -0.239  -1.346  -0.225   1.831   0.547  -2.170  -0.694   2.311
        0.000   0.000   0.000   0.000   0.000  -0.000  -0.000   0.000   0.000
 
    4  -0.732   1.831  -0.225  -2.917   0.918   3.832  -1.274  -4.437   1.280
       -0.000  -0.000  -0.000   0.000  -0.000   0.000  -0.000   0.000   0.000
 
    5  -0.732  -0.225   1.831   0.918  -2.917  -1.274   3.832   1.280  -4.437
        0.000  -0.000  -0.000   0.000   0.000  -0.000   0.000   0.000   0.000
 
    6   0.645  -2.170   0.547   3.832  -1.274  -5.397   1.493   6.636  -1.242
        0.000   0.000   0.000  -0.000   0.000   0.000  -0.000  -0.000  -0.000
 
    7   0.645   0.547  -2.170  -1.274   3.832   1.493  -5.397  -1.242   6.636
       -0.000   0.000   0.000   0.000  -0.000   0.000   0.000  -0.000  -0.000
 
    8  -0.535   2.311  -0.694  -4.437   1.280   6.636  -1.242  -8.601   0.698
       -0.000  -0.000  -0.000  -0.000  -0.000   0.000   0.000   0.000  -0.000
 
    9  -0.535  -0.694   2.311   1.280  -4.437  -1.242   6.636   0.698  -8.601
        0.000  -0.000  -0.000  -0.000  -0.000   0.000   0.000   0.000   0.000
 
  Average fulfillment of the sum rule on Im[epsilon] for q-point    5 :     69.58  [%]
 
 
--------------------------------------------------------------------------------
  q-point number  6        q = ( 0.166667, 0.166667, 0.000000) [r.l.u.]
--------------------------------------------------------------------------------
 Using spectral method for the imaginary part =  0
 Using symmetries to sum only over the IBZ_q  =  1
 Using faster algorithm based on time reversal symmetry.
 Will sum 7920 (b,b',k,s) states in chi0.
 Calculating chi0(q,omega,G,G")
 
 ==== Little Group Info ==== 
  External point   1.66666667E-01  1.66666667E-01  0.00000000E+00
  Number of points in the IBZ defined by little group     36/   36
  Number of operations in the little group :   4/  8
 
  No time-reversal symmetry with zero umklapp:  2
  No time-reversal symmetry with non-zero umklapp:  0
 
 
  time-reversal symmetry with zero umklapp:  2
  time-reversal symmetry with non-zero umklapp:  0
 
 Calculation status :     36 to be completed
 ik=    1/  36 spin=  1 done by mpi rank:  0
 ik=    2/  36 spin=  1 done by mpi rank:  0
 ik=    3/  36 spin=  1 done by mpi rank:  0
 ik=    4/  36 spin=  1 done by mpi rank:  0
 ik=    5/  36 spin=  1 done by mpi rank:  0
 ik=    6/  36 spin=  1 done by mpi rank:  0
 ik=    7/  36 spin=  1 done by mpi rank:  0
 ik=    8/  36 spin=  1 done by mpi rank:  0
 ik=    9/  36 spin=  1 done by mpi rank:  0
 ik=   10/  36 spin=  1 done by mpi rank:  0
 ik=   11/  36 spin=  1 done by mpi rank:  0
 ik=   12/  36 spin=  1 done by mpi rank:  0
 ik=   13/  36 spin=  1 done by mpi rank:  0
 ik=   14/  36 spin=  1 done by mpi rank:  0
 ik=   15/  36 spin=  1 done by mpi rank:  0
 ik=   16/  36 spin=  1 done by mpi rank:  0
 ik=   17/  36 spin=  1 done by mpi rank:  0
 ik=   18/  36 spin=  1 done by mpi rank:  0
 ik=   19/  36 spin=  1 done by mpi rank:  0
 ik=   20/  36 spin=  1 done by mpi rank:  0
 ik=   21/  36 spin=  1 done by mpi rank:  0
 ik=   22/  36 spin=  1 done by mpi rank:  0
 ik=   23/  36 spin=  1 done by mpi rank:  0
[...]
                       0.000000  0.000000  0.000000  0.000000  0.000000  0.000000
                       0.000000  0.000000  0.000000  0.000000  0.000000  0.000000
                       0.000000  0.000000  0.000000  0.000000  0.000000  0.000000
                       0.000000  0.000000  0.000000  0.000000  0.000000  0.000000
                       0.000000  0.000000  0.000000  0.000000  0.000000  0.000000
                       0.000000  0.000000  0.000000  0.000000  0.000000  0.000000
                       0.000000  0.000000  0.000000  0.000000  0.000000  0.000000
                       0.000000  0.000000  0.000000  0.000000  0.000000  0.000000
                       0.000000  0.000000  0.000000  0.000000  0.000000  0.000000
                       0.000000  0.000000  0.000000  0.000000  0.000000  0.000000
                       0.000000  0.000000  0.000000  0.000000  0.000000  0.000000
                       0.000000  0.000000  0.000000  0.000000  0.000000  0.000000
                       0.000000  0.000000  0.000000  0.000000  0.000000  0.000000
                       0.000000  0.000000  0.000000  0.000000  0.000000  0.000000
                       0.000000  0.000000  0.000000  0.000000  0.000000  0.000000
                       0.000000  0.000000  0.000000  0.000000  0.000000  0.000000
                       0.000000  0.000000  0.000000  0.000000  0.000000  0.000000
                       0.000000  0.000000  0.000000  0.000000  0.000000  0.000000
                       0.000000  0.000000  0.000000  0.000000  0.000000  0.000000
                       0.000000  0.000000  0.000000  0.000000  0.000000  0.000000
                       0.000000  0.000000  0.000000  0.000000  0.000000  0.000000
                       0.000000  0.000000  0.000000  0.000000  0.000000  0.000000
                       0.000000  0.000000  0.000000  0.000000  0.000000  0.000000
                       0.000000  0.000000  0.000000  0.000000  0.000000  0.000000
                       0.000000  0.000000  0.000000  0.000000  0.000000  0.000000
                       0.000000  0.000000  0.000000  0.000000  0.000000  0.000000
                       0.000000  0.000000  0.000000  0.000000  0.000000  0.000000
                       0.000000  0.000000  0.000000  0.000000  0.000000  0.000000
                       0.000000  0.000000  0.000000  0.000000  0.000000  0.000000
                       0.000000  0.000000  0.000000  0.000000  0.000000  0.000000
                       0.000000  0.000000  0.000000  0.000000  0.000000  0.000000
                       0.000000  0.000000  0.000000  0.000000  0.000000  0.000000
                       0.000000  0.000000  0.000000  0.000000  0.000000  0.000000
                       0.000000  0.000000  0.000000  0.000000  0.000000  0.000000
                       0.000000  0.000000  0.000000  0.000000  0.000000  0.000000
                       0.000000  0.000000  0.000000  0.000000  0.000000  0.000000
                       0.000000  0.000000  0.000000  0.000000  0.000000  0.000000
                       0.000000  0.000000  0.000000  0.000000  0.000000  0.000000
                       0.000000  0.000000  0.000000  0.000000  0.000000  0.000000
                       0.000000  0.000000  0.000000  0.000000  0.000000  0.000000
                       0.000000  0.000000  0.000000  0.000000  0.000000  0.000000
                       0.000000  0.000000  0.000000  0.000000  0.000000  0.000000
                       0.000000  0.000000  0.000000  0.000000  0.000000  0.000000
                       0.000000  0.000000  0.000000  0.000000  0.000000  0.000000
                       0.000000  0.000000  0.000000  0.000000  0.000000  0.000000
                       0.000000  0.000000  0.000000  0.000000  0.000000  0.000000
                       0.000000  0.000000  0.000000  0.000000  0.000000  0.000000
                       0.000000  0.000000  0.000000  0.000000  0.000000  0.000000
                       0.000000  0.000000  0.000000  0.000000  0.000000  0.000000
                       0.000000  0.000000  0.000000  0.000000  0.000000  0.000000
                       0.000000  0.000000  0.000000  0.000000  0.000000  0.000000
                       0.000000  0.000000  0.000000  0.000000  0.000000  0.000000
                       0.000000  0.000000  0.000000  0.000000  0.000000  0.000000
                       0.000000  0.000000  0.000000  0.000000  0.000000  0.000000
                       0.000000  0.000000  0.000000  0.000000  0.000000  0.000000
                       0.000000  0.000000  0.000000  0.000000  0.000000  0.000000
                       0.000000  0.000000  0.000000  0.000000  0.000000  0.000000
                       0.000000  0.000000  0.000000  0.000000  0.000000  0.000000
                       0.000000  0.000000  0.000000  0.000000  0.000000  0.000000
                       0.000000  0.000000  0.000000  0.000000  0.000000  0.000000
                       0.000000  0.000000  0.000000  0.000000  0.000000  0.000000
                       0.000000  0.000000  0.000000  0.000000  0.000000  0.000000
                       0.000000  0.000000  0.000000  0.000000  0.000000  0.000000
                       0.000000  0.000000  0.000000  0.000000  0.000000  0.000000
                       0.000000  0.000000  0.000000  0.000000  0.000000  0.000000
                       0.000000  0.000000  0.000000  0.000000  0.000000  0.000000
                       0.000000  0.000000  0.000000  0.000000  0.000000  0.000000
                       0.000000  0.000000  0.000000  0.000000  0.000000  0.000000
                       0.000000  0.000000  0.000000  0.000000  0.000000  0.000000
                       0.000000  0.000000  0.000000  0.000000  0.000000  0.000000
                       0.000000  0.000000  0.000000  0.000000  0.000000  0.000000
                       0.000000  0.000000  0.000000  0.000000  0.000000  0.000000
                       0.000000  0.000000  0.000000  0.000000  0.000000  0.000000
                       0.000000  0.000000  0.000000  0.000000  0.000000  0.000000
                       0.000000  0.000000  0.000000  0.000000  0.000000  0.000000
                       0.000000  0.000000  0.000000  0.000000  0.000000  0.000000
                       0.000000  0.000000  0.000000  0.000000  0.000000  0.000000
                       0.000000  0.000000  0.000000  0.000000  0.000000  0.000000
                       0.000000  0.000000  0.000000  0.000000  0.000000  0.000000
                       0.000000  0.000000  0.000000  0.000000  0.000000  0.000000
                       0.000000  0.000000  0.000000  0.000000  0.000000  0.000000
                       0.000000  0.000000  0.000000  0.000000  0.000000  0.000000
                       0.000000  0.000000  0.000000  0.000000  0.000000  0.000000
                       0.000000  0.000000  0.000000  0.000000  0.000000  0.000000
                       0.000000  0.000000  0.000000  0.000000  0.000000  0.000000
                       0.000000  0.000000  0.000000  0.000000  0.000000  0.000000
                       0.000000  0.000000  0.000000  0.000000  0.000000  0.000000
                       0.000000  0.000000  0.000000  0.000000  0.000000  0.000000
                       0.000000  0.000000  0.000000  0.000000  0.000000  0.000000
                       0.000000  0.000000  0.000000  0.000000  0.000000  0.000000
                       0.000000  0.000000  0.000000  0.000000  0.000000  0.000000
                       0.000000  0.000000  0.000000  0.000000  0.000000  0.000000
                       0.000000  0.000000  0.000000  0.000000  0.000000  0.000000
                       0.000000  0.000000  0.000000  0.000000  0.000000  0.000000
                       0.000000  0.000000  0.000000  0.000000  0.000000  0.000000
                       0.000000  0.000000  0.000000  0.000000  0.000000  0.000000
                       0.000000  0.000000  0.000000  0.000000  0.000000  0.000000
                       0.000000  0.000000  0.000000  0.000000  0.000000  0.000000
                       0.000000  0.000000  0.000000  0.000000  0.000000  0.000000
                       0.000000  0.000000  0.000000  0.000000  0.000000  0.000000
                       0.000000  0.000000  0.000000  0.000000  0.000000  0.000000
                       0.000000  0.000000  0.000000  0.000000  0.000000  0.000000
                       0.000000  0.000000  0.000000  0.000000  0.000000  0.000000
        optdriver3          3
        optdriver4          4
           ppmfrq3     6.13713734E-01 Hartree
           ppmfrq4     0.00000000E+00 Hartree
          spgroup          57
           strten3     0.0000000000E+00  0.0000000000E+00  0.0000000000E+00
                       0.0000000000E+00  0.0000000000E+00  0.0000000000E+00
           strten4     0.0000000000E+00  0.0000000000E+00  0.0000000000E+00
                       0.0000000000E+00  0.0000000000E+00  0.0000000000E+00
           symrel      1  0  0   0  1  0   0  0  1      -1  0  0   0 -1  0   0  0 -1
                      -1  0  0   0  1  0   0  0 -1       1  0  0   0 -1  0   0  0  1
                      -1  0  0   0 -1  0   0  0  1       1  0  0   0  1  0   0  0 -1
                       1  0  0   0 -1  0   0  0 -1      -1  0  0   0  1  0   0  0  1
            tnons      0.0000000  0.0000000  0.0000000     0.0000000  0.0000000  0.0000000
                       0.5000000  0.5000000  0.0000000     0.5000000  0.5000000  0.0000000
                       0.0000000  0.5000000  0.0000000     0.0000000  0.5000000  0.0000000
                       0.5000000  0.0000000  0.0000000     0.5000000  0.0000000  0.0000000
           toldfe      1.00000000E-08 Hartree
           tolsym      1.00000000E-04
            typat      1  1  1  1  1  1  1  1  2  2  2  2  2  2  2  2
          usekden           1
          vcutgeo      1.0000000  1.0000000  0.0000000
              wtk        0.02778    0.05556    0.05556    0.02778    0.05556    0.11111
                         0.11111    0.05556    0.05556    0.11111    0.11111    0.05556
                         0.02778    0.05556    0.05556    0.02778
           xangst      4.2967919336E+00  4.4031208229E+00  1.9235223445E+01
                       3.2189838994E-01  4.9484536734E-01  1.8210776555E+01
                       1.9874467718E+00  4.9484536734E-01  1.8210776555E+01
                       2.6312435517E+00  4.4031208229E+00  1.9235223445E+01
                       2.6312435517E+00  1.9541377278E+00  1.8210776555E+01
                       1.9874467718E+00  2.9438284625E+00  1.9235223445E+01
                       3.2189838994E-01  2.9438284625E+00  1.9235223445E+01
                       4.2967919336E+00  1.9541377278E+00  1.8210776555E+01
                       2.3356357232E+00  2.4320779191E+00  1.6965378755E+01
                       2.2830546004E+00  2.4658882712E+00  2.0480621245E+01
                       2.6290561390E-02  2.4658882712E+00  2.0480621245E+01
                       4.5923997622E+00  2.4320779191E+00  1.6965378755E+01
                       4.5923997622E+00  4.8810610142E+00  2.0480621245E+01
                       2.6290561390E-02  1.6905176065E-02  1.6965378755E+01
                       2.2830546004E+00  1.6905176065E-02  1.6965378755E+01
                       2.3356357232E+00  4.8810610142E+00  2.0480621245E+01
            xcart      8.1197600045E+00  8.3206924853E+00  3.6349304416E+01
                       6.0829979960E-01  9.3512222240E-01  3.4413380356E+01
                       3.7557301025E+00  9.3512222240E-01  3.4413380356E+01
                       4.9723297016E+00  8.3206924853E+00  3.6349304416E+01
                       4.9723297016E+00  3.6927851314E+00  3.4413380356E+01
                       3.7557301025E+00  5.5630295763E+00  3.6349304416E+01
                       6.0829979960E-01  5.5630295763E+00  3.6349304416E+01
                       8.1197600045E+00  3.6927851314E+00  3.4413380356E+01
                       4.4137118630E+00  4.5959612009E+00  3.2059919588E+01
                       4.3143479412E+00  4.6598535068E+00  3.8702765184E+01
                       4.9681960906E-02  4.6598535068E+00  3.8702765184E+01
                       8.6783778432E+00  4.5959612009E+00  3.2059919588E+01
                       8.6783778432E+00  9.2238685547E+00  3.8702765184E+01
                       4.9681960906E-02  3.1946152990E-02  3.2059919588E+01
                       4.3143479412E+00  3.1946152990E-02  3.2059919588E+01
                       4.4137118630E+00  9.2238685547E+00  3.8702765184E+01
             xred      9.3030526678E-01  8.9896921536E-01  5.1367898962E-01
                       6.9694733222E-02  1.0103078464E-01  4.8632101038E-01
                       4.3030526678E-01  1.0103078464E-01  4.8632101038E-01
                       5.6969473322E-01  8.9896921536E-01  5.1367898962E-01
                       5.6969473322E-01  3.9896921536E-01  4.8632101038E-01
                       4.3030526678E-01  6.0103078464E-01  5.1367898962E-01
                       6.9694733222E-02  6.0103078464E-01  5.1367898962E-01
                       9.3030526678E-01  3.9896921536E-01  4.8632101038E-01
                       5.0569221133E-01  4.9654853149E-01  4.5306251015E-01
                       4.9430778867E-01  5.0345146851E-01  5.4693748985E-01
                       5.6922113300E-03  5.0345146851E-01  5.4693748985E-01
                       9.9430778867E-01  4.9654853149E-01  4.5306251015E-01
                       9.9430778867E-01  9.9654853149E-01  5.4693748985E-01
                       5.6922113300E-03  3.4514685091E-03  4.5306251015E-01
                       4.9430778867E-01  3.4514685091E-03  4.5306251015E-01
                       5.0569221133E-01  9.9654853149E-01  5.4693748985E-01
            znucl        6.00000    9.00000
 
================================================================================
  

================================================================================

 Suggested references for the acknowledgment of ABINIT usage.

 The users of ABINIT have little formal obligations with respect to the ABINIT group
 (those specified in the GNU General Public License, http://www.gnu.org/copyleft/gpl.txt).
 However, it is common practice in the scientific literature,
 to acknowledge the efforts of people that have made the research possible.
 In this spirit, please find below suggested citations of work written by ABINIT developers,
 corresponding to implementations inside of ABINIT that you have used in the present run.
 Note also that it will be of great value to readers of publications presenting these results,
 to read papers enabling them to understand the theoretical formalism and details
 of the ABINIT implementation.
 For information on why they are suggested, see also https://docs.abinit.org/theory/acknowledgments.
-
- [1] Libxc: A library of exchange and correlation functionals for density functional theory.
- M.A.L. Marques, M.J.T. Oliveira, T. Burnus, Computer Physics Communications 183, 2227 (2012).
- Comment: to be cited when LibXC is used (negative value of ixc)
- Strong suggestion to cite this paper.
- DOI and bibtex: see https://docs.abinit.org/theory/bibliography/#marques2012
-
- [2] The Abinit project: Impact, environment and recent developments.
- Computer Phys. Comm. 248, 107042 (2020).
- X.Gonze, B. Amadon, G. Antonius, F.Arnardi, L.Baguet, J.-M.Beuken,
- J.Bieder, F.Bottin, J.Bouchet, E.Bousquet, N.Brouwer, F.Bruneval,
- G.Brunin, T.Cavignac, J.-B. Charraud, Wei Chen, M.Cote, S.Cottenier,
- J.Denier, G.Geneste, Ph.Ghosez, M.Giantomassi, Y.Gillet, O.Gingras,
- D.R.Hamann, G.Hautier, Xu He, N.Helbig, N.Holzwarth, Y.Jia, F.Jollet,
- W.Lafargue-Dit-Hauret, K.Lejaeghere, M.A.L.Marques, A.Martin, C.Martins,
- H.P.C. Miranda, F.Naccarato, K. Persson, G.Petretto, V.Planes, Y.Pouillon,
- S.Prokhorenko, F.Ricci, G.-M.Rignanese, A.H.Romero, M.M.Schmitt, M.Torrent,
- M.J.van Setten, B.Van Troeye, M.J.Verstraete, G.Zerah and J.W.Zwanzig
- Comment: the fifth generic paper describing the ABINIT project.
- Note that a version of this paper, that is not formatted for Computer Phys. Comm. 
- is available at https://www.abinit.org/sites/default/files/ABINIT20.pdf .
- The licence allows the authors to put it on the Web.
- DOI and bibtex: see https://docs.abinit.org/theory/bibliography/#gonze2020
-
- [3] ABINIT: Overview, and focus on selected capabilities
- J. Chem. Phys. 152, 124102 (2020).
- A. Romero, D.C. Allan, B. Amadon, G. Antonius, T. Applencourt, L.Baguet,
- J.Bieder, F.Bottin, J.Bouchet, E.Bousquet, F.Bruneval,
- G.Brunin, D.Caliste, M.Cote,
- J.Denier, C. Dreyer, Ph.Ghosez, M.Giantomassi, Y.Gillet, O.Gingras,
- D.R.Hamann, G.Hautier, F.Jollet, G. Jomard,
- A.Martin, 
- H.P.C. Miranda, F.Naccarato, G.Petretto, N.A. Pike, V.Planes,
- S.Prokhorenko, T. Rangel, F.Ricci, G.-M.Rignanese, M.Royo, M.Stengel, M.Torrent,
- M.J.van Setten, B.Van Troeye, M.J.Verstraete, J.Wiktor, J.W.Zwanziger, and X.Gonze.
- Comment: a global overview of ABINIT, with focus on selected capabilities .
- Note that a version of this paper, that is not formatted for J. Chem. Phys 
- is available at https://www.abinit.org/sites/default/files/ABINIT20_JPC.pdf .
- The licence allows the authors to put it on the Web.
- DOI and bibtex: see https://docs.abinit.org/theory/bibliography/#romero2020
-
- [4] Recent developments in the ABINIT software package.
- Computer Phys. Comm. 205, 106 (2016).
- X.Gonze, F.Jollet, F.Abreu Araujo, D.Adams, B.Amadon, T.Applencourt,
- C.Audouze, J.-M.Beuken, J.Bieder, A.Bokhanchuk, E.Bousquet, F.Bruneval
- D.Caliste, M.Cote, F.Dahm, F.Da Pieve, M.Delaveau, M.Di Gennaro,
- B.Dorado, C.Espejo, G.Geneste, L.Genovese, A.Gerossier, M.Giantomassi,
- Y.Gillet, D.R.Hamann, L.He, G.Jomard, J.Laflamme Janssen, S.Le Roux,
- A.Levitt, A.Lherbier, F.Liu, I.Lukacevic, A.Martin, C.Martins,
- M.J.T.Oliveira, S.Ponce, Y.Pouillon, T.Rangel, G.-M.Rignanese,
- A.H.Romero, B.Rousseau, O.Rubel, A.A.Shukri, M.Stankovski, M.Torrent,
- M.J.Van Setten, B.Van Troeye, M.J.Verstraete, D.Waroquier, J.Wiktor,
- B.Xu, A.Zhou, J.W.Zwanziger.
- Comment: the fourth generic paper describing the ABINIT project.
- Note that a version of this paper, that is not formatted for Computer Phys. Comm. 
- is available at https://www.abinit.org/sites/default/files/ABINIT16.pdf .
- The licence allows the authors to put it on the Web.
- DOI and bibtex: see https://docs.abinit.org/theory/bibliography/#gonze2016
-
- And optionally:
-
- [5] ABINIT: First-principles approach of materials and nanosystem properties.
- Computer Phys. Comm. 180, 2582-2615 (2009).
- X. Gonze, B. Amadon, P.-M. Anglade, J.-M. Beuken, F. Bottin, P. Boulanger, F. Bruneval,
- D. Caliste, R. Caracas, M. Cote, T. Deutsch, L. Genovese, Ph. Ghosez, M. Giantomassi
- S. Goedecker, D.R. Hamann, P. Hermet, F. Jollet, G. Jomard, S. Leroux, M. Mancini, S. Mazevet,
- M.J.T. Oliveira, G. Onida, Y. Pouillon, T. Rangel, G.-M. Rignanese, D. Sangalli, R. Shaltaf,
- M. Torrent, M.J. Verstraete, G. Zerah, J.W. Zwanziger
- Comment: the third generic paper describing the ABINIT project.
- Note that a version of this paper, that is not formatted for Computer Phys. Comm. 
- is available at https://www.abinit.org/sites/default/files/ABINIT_CPC_v10.pdf .
- The licence allows the authors to put it on the Web.
- DOI and bibtex: see https://docs.abinit.org/theory/bibliography/#gonze2009
 Proc.   0 individual time (sec): cpu=       5290.0  wall=       5462.6
 
 Calculation completed.
.Delivered   0 WARNINGs and   2 COMMENTs to log file.

--- !FinalSummary
program: abinit
version: 9.7.2
start_datetime: Tue Mar 01 19:35:39 2022
end_datetime: Tue Mar 01 21:06:42 2022
overall_cpu_time:      507421.1
overall_wall_time:      524369.8
exit_requested_by_user: no 
timelimit: 0
pseudos: 
    C   : c654b01b9d50d97c5308503e02772833
    F   : 5bd02824304ebaccac957f285162e15e
usepaw: 0
mpi_procs: 96
omp_threads: 1
num_warnings: 0
num_comments: 2
...
