
.Version 9.7.2 of ABINIT 
.(MPI version, prepared for a x86_64_linux_intel2021.2 computer) 

.Copyright (C) 1998-2021 ABINIT group . 
 ABINIT comes with ABSOLUTELY NO WARRANTY.
 It is free software, and you are welcome to redistribute it
 under certain conditions (GNU General Public License,
 see ~abinit/COPYING or http://www.gnu.org/copyleft/gpl.txt).

 ABINIT is a project of the Universite Catholique de Louvain,
 Corning Inc. and other collaborators, see ~abinit/doc/developers/contributors.txt .
 Please read https://docs.abinit.org/theory/acknowledgments for suggested
 acknowledgments of the ABINIT effort.
 For more information, see https://www.abinit.org .

.Starting date : Wed 23 Feb 2022.
- ( at 00h30 )
  
- input  file    -> ./3F-2110_gw.abi
- output file    -> 3F-2110_gw.abo
- root for input  files -> 3F-2110_gw_i
- root for output files -> 3F-2110_gw_o
 
 
 DATASET    2 : space group Pb c m (# 57); Bravais oP (primitive ortho.)
================================================================================
 Values of the parameters that define the memory need for DATASET  2.
     intxc =       0    ionmov =       0      iscf =      -2    lmnmax =       1
     lnmax =       1     mgfft =     540  mpssoang =       2    mqgrid =   25866
     natom =      32  nloc_mem =       1    nspden =       1   nspinor =       1
    nsppol =       1      nsym =       8    n1xccc =       0    ntypat =       2
    occopt =       1   xclevel =       2
-    mband =        1752        mffmem =           1         mkmem =           1
       mpw =       24266          nfft =     1749600          nkpt =          16
================================================================================
P This job should need less than                    1116.920 Mbytes of memory.
  Rough estimation (10% accuracy) of disk space for files :
_ WF disk file :  10379.404 Mbytes ; DEN or POT disk file :     13.350 Mbytes.
================================================================================
 
--------------------------------------------------------------------------------
------------- Echo of variables that govern the present computation ------------
--------------------------------------------------------------------------------
-
- outvars: echo of selected default values                                      
-   iomode0 =  0 , fftalg0 =512 , wfoptalg0 =  0
-
- outvars: echo of global parameters not present in the input file              
-  max_nthreads =    0
-
 -outvars: echo values of preprocessed input variables --------
-          iomode           1
            acell      8.2242178688E+00  8.5842825644E+00  8.1258223714E+01 Bohr
              amu      1.20110000E+01  1.89984032E+01
          chkprim           0
     densfor_pred           6
           diemac      1.20000000E+01
             ecut      5.00000000E+01 Hartree
-          fftalg         512
           getden           1
      gw_icutcoul           2
             iscf          -2
           istwfk        1    0    0    1    0    0    0    0    0    0
                         0    0    1    0    0    1
              ixc     -208012
           jdtset        2
              kpt      0.00000000E+00  0.00000000E+00  0.00000000E+00
                       1.66666667E-01  0.00000000E+00  0.00000000E+00
                       3.33333333E-01  0.00000000E+00  0.00000000E+00
                       5.00000000E-01  0.00000000E+00  0.00000000E+00
                       0.00000000E+00  1.66666667E-01  0.00000000E+00
                       1.66666667E-01  1.66666667E-01  0.00000000E+00
                       3.33333333E-01  1.66666667E-01  0.00000000E+00
                       5.00000000E-01  1.66666667E-01  0.00000000E+00
                       0.00000000E+00  3.33333333E-01  0.00000000E+00
                       1.66666667E-01  3.33333333E-01  0.00000000E+00
                       3.33333333E-01  3.33333333E-01  0.00000000E+00
                       5.00000000E-01  3.33333333E-01  0.00000000E+00
                       0.00000000E+00  5.00000000E-01  0.00000000E+00
                       1.66666667E-01  5.00000000E-01  0.00000000E+00
                       3.33333333E-01  5.00000000E-01  0.00000000E+00
                       5.00000000E-01  5.00000000E-01  0.00000000E+00
         kptrlatt        6    0    0      0    6    0      0    0    1
          kptrlen      4.93453072E+01
P           mkmem           1
            natom          32
            nband        1752
           nbdbuf         219
           ndtset           1
            ngfft          54      60     540
             nkpt          16
-          npband           4
-        np_spkpt          16
            nstep         100
             nsym           8
           ntypat           2
           ortalg          -2
        paral_kgb           1
          prtkden           1
          spgroup          57
           symrel      1  0  0   0  1  0   0  0  1      -1  0  0   0 -1  0   0  0 -1
                      -1  0  0   0  1  0   0  0 -1       1  0  0   0 -1  0   0  0  1
                      -1  0  0   0 -1  0   0  0  1       1  0  0   0  1  0   0  0 -1
                       1  0  0   0 -1  0   0  0 -1      -1  0  0   0  1  0   0  0  1
            tnons      0.0000000  0.0000000  0.0000000    -0.0000000  0.0000000  0.0000000
                       0.5000000  0.5000000  0.0000000     0.5000000  0.5000000  0.0000000
                      -0.0000000  0.5000000  0.0000000     0.0000000  0.5000000  0.0000000
                       0.5000000  0.0000000  0.0000000     0.5000000  0.0000000  0.0000000
           tolsym      1.00000000E-04
           tolwfr      1.00000000E-18
            typat      1  1  1  1  1  1  1  1  1  1  1  1  1  1  1  1  1  1  1  1
                       1  1  1  1  2  2  2  2  2  2  2  2
          usekden           1
          vcutgeo      1.0000000  1.0000000  0.0000000
         wfoptalg         114
              wtk        0.02778    0.05556    0.05556    0.02778    0.05556    0.11111
                         0.11111    0.05556    0.05556    0.11111    0.11111    0.05556
                         0.02778    0.05556    0.05556    0.02778
           xangst      1.8802722574E+00  1.8443813900E+00  1.8447230489E+01
                       2.4717963972E+00  2.6982252952E+00  2.4552769511E+01
                       4.0563065847E+00  2.6982252952E+00  2.4552769511E+01
                       2.9576206984E-01  1.8443813900E+00  1.8447230489E+01
                       2.9576206984E-01  4.1156847326E+00  2.4552769511E+01
                       4.0563065847E+00  4.2692195258E-01  1.8447230489E+01
                       2.4717963972E+00  4.2692195258E-01  1.8447230489E+01
                       1.8802722574E+00  4.1156847326E+00  2.4552769511E+01
                       1.9067521508E+00  1.8947717124E+00  2.0873700219E+01
                       2.4453165038E+00  2.6478349728E+00  2.2126299781E+01
                       4.0827864781E+00  2.6478349728E+00  2.2126299781E+01
                       2.6928217646E-01  1.8947717124E+00  2.0873700219E+01
                       2.6928217646E-01  4.1660750550E+00  2.2126299781E+01
                       4.0827864781E+00  3.7653163020E-01  2.0873700219E+01
                       2.4453165038E+00  3.7653163020E-01  2.0873700219E+01
                       1.9067521508E+00  4.1660750550E+00  2.2126299781E+01
                       1.8977225185E+00  1.8760712064E+00  2.3382644152E+01
                       2.4543461361E+00  2.6665354788E+00  1.9617355848E+01
                       4.0737568458E+00  2.6665354788E+00  1.9617355848E+01
                       2.7831180877E-01  1.8760712064E+00  2.3382644152E+01
                       2.7831180877E-01  4.1473745490E+00  1.9617355848E+01
                       4.0737568458E+00  3.9523213622E-01  2.3382644152E+01
                       2.4543461361E+00  3.9523213622E-01  2.3382644152E+01
                       1.8977225185E+00  4.1473745490E+00  1.9617355848E+01
                      -2.7471125494E-03  4.5136284213E+00  1.7210367942E+01
                       4.3548157671E+00  2.8978263889E-02  2.5789632058E+01
                       2.1732872148E+00  2.8978263889E-02  2.5789632058E+01
                       2.1787814398E+00  4.5136284213E+00  1.7210367942E+01
                       2.1787814398E+00  2.2423250787E+00  2.5789632058E+01
                       2.1732872148E+00  2.3002816065E+00  1.7210367942E+01
                       4.3548157671E+00  2.3002816065E+00  1.7210367942E+01
                      -2.7471125494E-03  2.2423250787E+00  2.5789632058E+01
            xcart      3.5531996217E+00  3.4853757117E+00  3.4860213535E+01
                       4.6710182469E+00  5.0989068527E+00  4.6398010179E+01
                       7.6653085561E+00  5.0989068527E+00  4.6398010179E+01
                       5.5890931249E-01  3.4853757117E+00  3.4860213535E+01
                       5.5890931249E-01  7.7775169939E+00  4.6398010179E+01
                       7.6653085561E+00  8.0676557049E-01  3.4860213535E+01
                       4.6710182469E+00  8.0676557049E-01  3.4860213535E+01
                       3.5531996217E+00  7.7775169939E+00  4.6398010179E+01
                       3.6032393682E+00  3.5805996208E+00  3.9445576794E+01
                       4.6209785004E+00  5.0036829436E+00  4.1812646920E+01
                       7.7153483026E+00  5.0036829436E+00  4.1812646920E+01
                       5.0886956598E-01  3.5805996208E+00  3.9445576794E+01
                       5.0886956598E-01  7.8727409030E+00  4.1812646920E+01
                       7.7153483026E+00  7.1154166145E-01  3.9445576794E+01
                       4.6209785004E+00  7.1154166145E-01  3.9445576794E+01
                       3.6032393682E+00  7.8727409030E+00  4.1812646920E+01
                       3.5861758361E+00  3.5452607858E+00  4.4186793709E+01
                       4.6380420325E+00  5.0390217786E+00  3.7071430005E+01
                       7.6982847705E+00  5.0390217786E+00  3.7071430005E+01
                       5.2593309813E-01  3.5452607858E+00  4.4186793709E+01
                       5.2593309813E-01  7.8374020680E+00  3.7071430005E+01
                       7.6982847705E+00  7.4688049637E-01  4.4186793709E+01
                       4.6380420325E+00  7.4688049637E-01  4.4186793709E+01
                       3.5861758361E+00  7.8374020680E+00  3.7071430005E+01
                      -5.1912903747E-03  8.5295215818E+00  3.2522882056E+01
                       8.2294091590E+00  5.4760982556E-02  4.8735341658E+01
                       4.1069176440E+00  5.4760982556E-02  4.8735341658E+01
                       4.1173002246E+00  8.5295215818E+00  3.2522882056E+01
                       4.1173002246E+00  4.2373802996E+00  4.8735341658E+01
                       4.1069176440E+00  4.3469022648E+00  3.2522882056E+01
                       8.2294091590E+00  4.3469022648E+00  3.2522882056E+01
                      -5.1912903747E-03  4.2373802996E+00  4.8735341658E+01
             xred      4.3204103763E-01  4.0601828814E-01  4.2900536022E-01
                       5.6795896235E-01  5.9398171186E-01  5.7099463978E-01
                       9.3204103763E-01  5.9398171186E-01  5.7099463978E-01
                       6.7958962349E-02  4.0601828814E-01  4.2900536022E-01
                       6.7958962349E-02  9.0601828814E-01  5.7099463978E-01
                       9.3204103763E-01  9.3981711860E-02  4.2900536022E-01
                       5.6795896235E-01  9.3981711860E-02  4.2900536022E-01
                       4.3204103763E-01  9.0601828814E-01  5.7099463978E-01
                       4.3812547597E-01  4.1711110904E-01  4.8543488882E-01
                       5.6187452401E-01  5.8288889096E-01  5.1456511118E-01
                       9.3812547597E-01  5.8288889096E-01  5.1456511118E-01
                       6.1874524009E-02  4.1711110904E-01  4.8543488882E-01
                       6.1874524009E-02  9.1711110904E-01  5.1456511118E-01
                       9.3812547597E-01  8.2888890960E-02  4.8543488882E-01
                       5.6187452401E-01  8.2888890960E-02  4.8543488882E-01
                       4.3812547597E-01  9.1711110904E-01  5.1456511118E-01
                       4.3605068510E-01  4.1299441849E-01  5.4378242213E-01
                       5.6394931488E-01  5.8700558151E-01  4.5621757787E-01
                       9.3605068510E-01  5.8700558151E-01  4.5621757787E-01
                       6.3949314879E-02  4.1299441849E-01  5.4378242213E-01
                       6.3949314879E-02  9.1299441849E-01  4.5621757787E-01
                       9.3605068510E-01  8.7005581511E-02  5.4378242213E-01
                       5.6394931488E-01  8.7005581511E-02  5.4378242213E-01
                       4.3605068510E-01  9.1299441849E-01  4.5621757787E-01
                      -6.3121994790E-04  9.9362078518E-01  4.0024111492E-01
                       1.0006312199E+00  6.3792148203E-03  5.9975888508E-01
                       4.9936878005E-01  6.3792148203E-03  5.9975888508E-01
                       5.0063121993E-01  9.9362078518E-01  4.0024111492E-01
                       5.0063121993E-01  4.9362078518E-01  5.9975888508E-01
                       4.9936878005E-01  5.0637921482E-01  4.0024111492E-01
                       1.0006312199E+00  5.0637921482E-01  4.0024111492E-01
                      -6.3121994790E-04  4.9362078518E-01  5.9975888508E-01
            znucl        6.00000    9.00000
 
================================================================================
 
 chkinp: Checking input parameters for consistency, jdtset=   2.
 
================================================================================
== DATASET  2 ==================================================================
-   mpi_nproc: 64, omp_nthreads: -1 (-1 if OMP is not activated)
 

--- !DatasetInfo
iteration_state: {dtset: 2, }
dimensions: {natom: 32, nkpt: 16, mband: 1752, nsppol: 1, nspinor: 1, nspden: 1, mpw: 24266, }
cutoff_energies: {ecut:  50.0, pawecutdg:  -1.0, }
electrons: {nelect:   1.52000000E+02, charge:   0.00000000E+00, occopt:   1.00000000E+00, tsmear:   1.00000000E-02, }
meta: {optdriver: 0, ionmov: 0, optcell: 0, iscf: -2, paral_kgb: 1, }
...

 mkfilename : getden/=0, take file _DEN from output of DATASET   1.
 
 mkfilename : getkden/=0, take file _KDEN from output of DATASET   1.
 
 Real(R)+Recip(G) space primitive vectors, cartesian coordinates (Bohr,Bohr^-1):
 R(1)=  8.2242179  0.0000000  0.0000000  G(1)=  0.1215921  0.0000000  0.0000000
 R(2)=  0.0000000  8.5842826  0.0000000  G(2)=  0.0000000  0.1164920  0.0000000
 R(3)=  0.0000000  0.0000000 81.2582237  G(3)=  0.0000000  0.0000000  0.0123064
 Unit cell volume ucvol=  5.7367502E+03 bohr^3
 Angles (23,13,12)=  9.00000000E+01  9.00000000E+01  9.00000000E+01 degrees
 
 getcut: wavevector=  0.0000  0.0000  0.0000  ngfft=  54  60 540
         ecut(hartree)=     50.000   => boxcut(ratio)=   2.06276
 
--- Pseudopotential description ------------------------------------------------
- pspini: atom type   1  psp file is ../6c.4.hgh
- pspatm: opening atomic psp file    ../6c.4.hgh
- Hartwigsen-Goedecker-Hutter psp for C,  from PRB58, 3641 (1998)
-  6.00000   4.00000     10605                znucl, zion, pspdat
    3    1    1    0      2001   0.00000      pspcod,pspxc,lmax,lloc,mmax,r2well
 rloc=   0.3488300
 cc1 =  -8.5137710; cc2 =   1.2284320; cc3 =   0.0000000; cc4 =   0.0000000
 rrs =   0.3045530; h11s=   9.5228420; h22s=   0.0000000; h33s=   0.0000000
 rrp =   0.2326770; h11p=   0.0000000; h22p=   0.0000000; h33p=   0.0000000
                    k11p=   0.0041040; k22p=   0.0000000; k33p=   0.0000000
-  Local part computed in reciprocal space.
 
 pspatm : COMMENT -
  the projectors are not normalized,
  so that the KB energies are not consistent with 
  definition in PRB44, 8503 (1991). 
  However, this does not influence the results obtained hereafter.
  pspatm : epsatm=   -0.16969744
         --- l  ekb(1:nproj) -->
             0    0.953587
 pspatm: atomic psp has been read  and splines computed
 
- pspini: atom type   2  psp file is ../9f.7.hgh
- pspatm: opening atomic psp file    ../9f.7.hgh
- Hartwigsen-Goedecker-Hutter psp for F,  from PRB58, 3641 (1998)
-  9.00000   7.00000     10605                znucl, zion, pspdat
    3    1    1    0      2001   0.00000      pspcod,pspxc,lmax,lloc,mmax,r2well
 rloc=   0.2185250
 cc1 = -21.3073610; cc2 =   3.0728690; cc3 =   0.0000000; cc4 =   0.0000000
 rrs =   0.1955670; h11s=  23.5849420; h22s=   0.0000000; h33s=   0.0000000
 rrp =   0.1742680; h11p=   0.0000000; h22p=   0.0000000; h33p=   0.0000000
                    k11p=   0.0151060; k22p=   0.0000000; k33p=   0.0000000
-  Local part computed in reciprocal space.
 
 pspatm : COMMENT -
  the projectors are not normalized,
  so that the KB energies are not consistent with 
  definition in PRB44, 8503 (1991). 
  However, this does not influence the results obtained hereafter.
  pspatm : epsatm=    0.11349172
         --- l  ekb(1:nproj) -->
             0    0.625355
 pspatm: atomic psp has been read  and splines computed
 
--------------------------------------------------------------------------------
 
 
================================================================================
 prteigrs : about to open file 3F-2110_gw_o_DS2_EIG
 Non-SCF case, kpt    1 (  0.00000  0.00000  0.00000), residuals and eigenvalues=
  1.15E-28  3.38E-28  5.70E-30  4.27E-29  1.79E-29  8.92E-29  1.09E-28  2.38E-28
  9.58E-29  3.52E-29  4.30E-29  2.34E-28  1.60E-28  6.99E-30  4.78E-29  2.85E-29
  5.24E-29  5.38E-29  5.99E-30  1.78E-29  1.21E-29  2.47E-30  2.74E-30  4.70E-30
  3.52E-30  1.36E-29  9.47E-30  3.37E-29  9.33E-30  3.11E-29  3.28E-29  7.13E-30
  6.18E-30  6.52E-30  1.16E-29  1.11E-29  4.51E-30  5.54E-30  7.30E-30  2.23E-29
  7.26E-30  5.60E-30  4.50E-30  8.88E-30  4.38E-30  5.60E-30  3.18E-30  9.16E-30
  6.39E-30  3.17E-30  6.79E-30  8.09E-30  1.38E-29  3.60E-30  4.14E-30  3.47E-30
  4.46E-30  3.01E-30  1.24E-29  6.27E-30  3.14E-30  2.95E-30  3.47E-30  2.66E-30
  4.74E-30  1.56E-30  1.67E-30  3.15E-30  2.51E-30  3.46E-30  3.35E-30  4.38E-30
  3.02E-30  4.65E-30  3.72E-30  1.28E-30  1.54E-30  1.83E-30  5.97E-30  4.08E-30
  1.18E-30  5.66E-30  1.71E-30  3.43E-30  2.24E-30  3.89E-30  2.45E-30  3.05E-30
  2.57E-30  3.37E-30  1.96E-30  3.96E-30  6.06E-30  3.84E-30  2.99E-30  2.34E-30
  3.01E-30  1.57E-30  4.92E-30  3.67E-30  3.76E-30  3.52E-30  6.27E-30  4.62E-30
  6.63E-30  5.70E-30  3.81E-30  4.06E-30  3.27E-30  4.88E-30  4.64E-30  2.60E-30
  4.17E-30  6.60E-30  2.83E-30  5.21E-30  1.25E-29  9.09E-30  3.21E-30  6.10E-30
  9.95E-30  2.44E-30  7.36E-30  1.10E-29  3.88E-30  8.27E-30  7.57E-30  5.32E-30
  6.73E-30  1.38E-29  4.58E-30  3.78E-30  2.46E-29  5.09E-29  2.81E-30  1.38E-29
  2.17E-29  1.40E-29  5.21E-30  1.07E-29  9.01E-30  7.34E-30  7.79E-30  8.89E-30
  9.05E-30  9.87E-30  6.09E-29  6.83E-30  1.10E-29  5.93E-30  7.56E-30  1.07E-28
  1.12E-29  6.12E-30  3.10E-29  5.71E-30  5.38E-30  3.78E-29  2.16E-29  1.60E-29
  4.13E-30  4.80E-29  4.40E-29  6.89E-30  1.16E-29  4.97E-30  7.08E-30  3.64E-30
  2.56E-29  4.95E-29  7.13E-30  4.52E-30  1.23E-29  5.46E-30  1.37E-28  2.92E-29
  6.27E-29  4.81E-29  5.93E-30  3.30E-29  4.57E-30  6.96E-29  7.13E-29  6.14E-30
  7.00E-30  3.78E-29  1.07E-28  8.24E-30  1.36E-29  4.42E-29  8.33E-30  1.94E-29
  9.63E-30  7.55E-30  1.93E-29  2.24E-29  1.26E-29  5.66E-29  4.98E-30  6.12E-30
  2.70E-29  1.11E-28  9.55E-30  5.36E-30  7.76E-30  8.59E-30  9.92E-30  5.45E-29
  3.71E-30  5.89E-29  8.53E-30  3.69E-30  7.60E-30  1.84E-29  2.28E-29  5.11E-30
  6.36E-29  1.39E-29  2.44E-29  2.51E-28  9.54E-30  3.68E-29  4.79E-29  2.02E-29
  2.00E-29  6.59E-29  1.94E-29  3.12E-29  7.91E-29  1.99E-29  1.05E-29  3.98E-29
  1.05E-28  3.53E-29  2.43E-28  2.46E-29  3.21E-28  2.12E-29  5.59E-30  1.30E-29
  7.32E-30  1.35E-29  1.29E-29  2.78E-29  6.36E-30  5.24E-29  5.55E-30  2.54E-29
  6.00E-30  7.98E-30  1.10E-29  7.66E-30  5.90E-30  9.97E-29  8.95E-29  1.13E-29
  7.98E-29  5.33E-29  1.08E-29  9.07E-29  1.44E-29  1.91E-28  6.61E-30  6.53E-30
  1.08E-28  1.65E-29  4.82E-29  1.20E-28  1.42E-28  1.65E-29  5.84E-30  1.58E-29
  1.82E-29  1.58E-29  1.79E-29  1.04E-29  7.58E-29  7.26E-30  7.73E-30  2.63E-29
  5.90E-29  1.12E-29  9.91E-29  1.02E-28  4.52E-29  6.34E-30  2.45E-29  1.15E-29
  2.34E-29  4.77E-29  1.76E-28  1.01E-28  8.37E-30  5.61E-29  5.86E-28  1.77E-28
  1.54E-29  5.55E-30  7.74E-29  1.32E-29  9.84E-30  1.61E-28  2.07E-29  3.59E-29
  1.63E-29  8.31E-29  8.34E-30  5.25E-29  1.08E-29  9.73E-30  2.67E-29  1.87E-29
  8.52E-30  4.12E-29  6.10E-29  5.25E-29  9.83E-30  1.00E-28  8.13E-30  4.32E-29
  8.92E-29  2.15E-29  2.20E-28  2.76E-29  9.42E-29  7.37E-29  1.12E-28  6.47E-30
  1.80E-28  6.00E-29  5.73E-29  3.01E-29  2.67E-29  7.82E-29  7.40E-30  9.02E-30
  2.88E-29  6.10E-30  2.59E-29  7.37E-30  1.73E-29  7.94E-30  1.28E-29  7.11E-29
  5.22E-30  1.59E-29  1.00E-28  8.50E-29  1.12E-28  1.72E-28  2.40E-29  1.84E-28
  9.88E-29  1.75E-29  2.98E-29  1.84E-29  1.08E-29  2.84E-29  3.76E-29  1.91E-29
  6.04E-29  3.48E-28  5.06E-29  1.74E-28  7.95E-28  3.79E-29  1.81E-28  7.89E-29
  6.08E-29  6.64E-29  1.10E-28  3.86E-28  9.52E-29  2.89E-29  3.40E-28  2.65E-29
  1.95E-28  4.81E-29  1.10E-27  2.31E-29  5.45E-29  1.57E-28  2.57E-29  4.28E-29
  1.28E-28  3.29E-29  2.80E-29  3.70E-28  6.97E-29  3.03E-28  5.89E-28  5.47E-29
  2.94E-29  3.39E-29  4.40E-29  2.81E-29  2.51E-29  5.32E-29  3.80E-28  2.12E-29
  1.24E-28  1.55E-28  6.37E-29  1.36E-29  2.51E-28  6.37E-29  7.68E-29  6.98E-28
  8.70E-29  1.96E-29  5.59E-29  1.03E-29  1.23E-28  9.73E-28  5.76E-29  1.60E-29
  1.09E-27  7.52E-29  1.24E-28  8.42E-29  1.32E-29  3.11E-29  4.12E-29  1.97E-29
  2.73E-28  1.16E-28  1.37E-28  3.06E-29  1.48E-28  9.55E-29  2.33E-29  1.13E-28
  1.96E-29  2.96E-29  1.18E-28  3.59E-28  6.79E-29  3.27E-29  1.55E-29  2.11E-29
  1.13E-28  2.51E-28  3.57E-29  4.23E-29  2.16E-29  1.59E-29  9.71E-29  1.83E-28
  4.91E-29  3.06E-29  3.00E-28  4.67E-29  4.15E-29  3.12E-29  1.83E-28  7.50E-29
  4.48E-29  2.12E-29  1.01E-29  3.08E-29  2.01E-29  2.76E-29  4.82E-29  2.40E-29
  2.79E-29  2.00E-28  4.15E-29  2.01E-28  2.38E-29  4.91E-29  1.25E-29  2.08E-29
  4.81E-28  1.31E-28  5.48E-29  8.88E-29  6.32E-29  2.94E-29  5.99E-28  2.84E-28
  2.14E-29  1.10E-28  1.75E-28  3.10E-29  3.03E-29  6.99E-28  3.13E-29  6.61E-28
  6.59E-28  5.67E-29  3.99E-29  3.48E-28  1.03E-28  4.54E-28  1.31E-28  5.77E-29
  1.50E-28  9.10E-29  4.34E-28  3.64E-29  4.43E-28  2.92E-29  3.14E-29  5.36E-29
  2.13E-29  1.13E-28  4.57E-29  7.57E-29  1.19E-28  3.24E-28  4.94E-29  2.47E-29
  5.87E-29  3.89E-29  1.76E-28  1.11E-28  8.19E-29  8.54E-28  1.36E-28  1.84E-28
  3.88E-29  2.00E-29  3.71E-29  1.27E-27  6.82E-29  1.19E-28  5.06E-29  2.27E-28
  2.06E-28  1.29E-28  4.90E-29  2.66E-29  5.03E-29  5.18E-29  1.60E-28  1.81E-28
  4.54E-29  6.99E-28  2.96E-29  3.37E-28  9.52E-29  4.85E-28  1.68E-29  1.58E-28
  2.04E-27  4.47E-29  4.25E-29  2.61E-29  7.89E-29  3.53E-29  2.12E-29  4.87E-29
  4.31E-28  5.15E-28  1.00E-28  7.32E-29  4.70E-28  1.21E-28  3.07E-29  4.11E-28
  3.18E-29  8.94E-28  1.43E-28  4.94E-28  2.26E-29  1.61E-28  2.55E-28  3.30E-28
  5.32E-28  5.59E-29  2.45E-29  5.38E-29  6.40E-29  1.35E-28  3.57E-28  8.70E-29
  5.42E-29  5.57E-29  3.80E-28  7.54E-28  4.19E-29  2.47E-29  8.19E-29  3.74E-29
  2.32E-28  4.01E-29  4.92E-29  5.97E-29  1.81E-29  9.49E-29  3.71E-29  1.31E-28
  4.00E-28  5.18E-29  1.28E-28  1.47E-29  2.18E-29  3.86E-29  5.85E-29  2.10E-29
  6.88E-29  2.82E-28  8.99E-29  2.14E-29  5.01E-28  7.66E-28  1.61E-28  3.19E-28
  2.97E-29  9.59E-29  2.72E-28  1.02E-28  2.24E-29  1.54E-28  1.55E-28  8.08E-29
  1.10E-28  4.85E-29  7.06E-29  7.34E-29  3.73E-29  1.97E-28  5.89E-29  5.39E-29
  3.47E-29  3.90E-29  1.19E-29  1.25E-28  3.73E-29  2.96E-29  1.27E-28  3.51E-28
  5.87E-28  1.96E-28  7.20E-29  1.10E-28  5.95E-29  1.21E-28  2.83E-29  1.14E-28
  6.51E-29  3.72E-29  3.36E-28  1.84E-29  4.04E-29  2.22E-29  4.60E-29  1.56E-29
  1.17E-28  5.47E-29  7.17E-29  1.59E-29  1.59E-28  1.37E-29  1.40E-29  2.70E-29
  3.56E-28  7.13E-29  2.90E-29  1.43E-28  5.20E-29  1.08E-28  1.34E-29  1.56E-29
  2.75E-28  5.57E-29  1.01E-27  1.55E-28  2.15E-29  7.48E-29  5.38E-29  1.21E-28
  2.64E-28  3.74E-29  6.90E-29  5.03E-28  1.23E-28  2.94E-29  3.13E-28  3.63E-29
  1.86E-28  1.51E-29  2.94E-29  7.33E-28  1.44E-28  2.37E-28  2.61E-29  3.09E-29
  1.29E-28  1.50E-29  4.32E-28  3.42E-29  2.42E-29  1.58E-29  1.01E-28  8.86E-29
  6.87E-29  5.65E-29  2.50E-29  5.81E-29  2.70E-28  8.09E-29  1.41E-29  5.86E-30
  2.48E-28  2.38E-28  1.50E-27  3.38E-28  7.96E-29  4.13E-29  1.53E-29  2.80E-28
  4.00E-29  5.31E-29  2.83E-28  7.19E-29  1.87E-29  6.91E-28  1.88E-28  1.28E-29
  1.89E-28  2.15E-29  3.82E-28  4.00E-29  1.23E-27  1.57E-28  1.67E-28  9.86E-29
  2.01E-27  4.63E-29  1.96E-28  8.31E-29  5.08E-29  1.15E-28  7.58E-28  7.82E-29
  1.49E-29  1.12E-28  1.66E-28  1.15E-29  1.90E-29  4.91E-29  2.78E-29  1.49E-29
  1.91E-29  8.99E-29  3.35E-28  6.69E-29  3.67E-29  1.94E-28  3.92E-28  4.89E-29
  1.11E-29  1.18E-29  1.10E-27  2.20E-29  4.66E-29  2.18E-29  3.37E-29  2.25E-28
  3.67E-29  1.74E-28  4.32E-28  1.97E-29  6.11E-28  9.49E-30  1.44E-28  1.56E-29
  2.85E-29  2.94E-29  3.08E-29  1.08E-28  1.62E-29  7.10E-29  4.48E-29  1.25E-29
  2.02E-28  8.19E-28  7.23E-29  1.78E-29  5.79E-30  6.23E-29  2.53E-29  1.52E-28
  5.40E-29  2.45E-28  4.56E-29  1.72E-29  2.29E-28  1.33E-28  1.07E-29  5.52E-29
  1.76E-29  2.30E-29  3.92E-29  7.66E-29  8.05E-29  2.52E-29  5.90E-29  2.58E-29
  7.93E-29  3.87E-29  7.32E-29  2.27E-29  4.97E-28  5.38E-29  1.54E-28  3.61E-28
  7.89E-28  5.89E-29  1.04E-28  1.78E-29  6.23E-29  1.75E-29  1.79E-29  5.76E-29
  3.56E-29  8.31E-29  5.98E-28  4.61E-29  2.99E-28  3.76E-28  1.15E-28  7.17E-29
  2.67E-29  3.53E-29  8.36E-29  1.56E-28  1.95E-28  4.81E-29  7.16E-30  3.49E-28
  2.91E-29  6.84E-29  1.85E-28  1.21E-28  1.01E-29  3.29E-29  6.14E-29  2.21E-28
  2.69E-29  1.23E-28  1.96E-29  8.25E-29  1.95E-28  3.81E-29  6.08E-29  3.63E-28
  7.03E-29  1.35E-29  3.03E-29  1.69E-29  1.53E-29  3.72E-29  2.93E-29  1.34E-28
  1.50E-28  1.93E-29  2.33E-29  1.85E-29  2.62E-29  1.42E-29  2.80E-29  1.62E-29
  1.77E-29  4.29E-28  3.78E-27  4.71E-27  1.37E-27  6.27E-29  4.00E-28  8.98E-29
  1.72E-29  2.34E-29  9.29E-29  1.97E-29  7.71E-28  8.16E-28  3.65E-29  5.13E-29
  5.61E-28  1.06E-27  3.66E-28  2.82E-28  1.07E-28  2.04E-28  4.06E-29  5.67E-29
  1.84E-29  1.40E-28  1.60E-29  3.45E-28  1.36E-28  1.46E-28  2.73E-28  1.51E-29
  1.97E-28  3.75E-29  1.55E-29  4.44E-29  2.77E-28  1.28E-28  3.01E-29  4.69E-29
  3.49E-29  1.30E-29  1.28E-28  5.08E-28  3.18E-29  2.61E-29  1.61E-28  4.98E-29
  4.24E-29  2.13E-29  2.74E-28  6.29E-29  1.48E-29  1.38E-29  1.34E-28  2.32E-29
  3.88E-29  4.23E-29  3.32E-29  9.34E-29  1.90E-29  1.36E-28  4.66E-28  3.38E-29
  9.56E-29  5.36E-29  4.77E-29  2.77E-28  1.48E-28  1.67E-29  1.50E-28  3.11E-28
  1.69E-28  1.51E-28  1.59E-29  1.11E-28  2.87E-28  2.97E-28  9.09E-29  5.96E-28
  6.40E-28  9.54E-28  4.26E-29  2.06E-28  6.65E-29  3.83E-29  7.65E-29  4.57E-28
  1.68E-29  9.44E-29  7.66E-29  4.70E-28  1.49E-28  1.28E-28  7.81E-29  1.36E-28
  1.87E-29  1.54E-28  2.20E-28  1.71E-28  2.31E-29  1.94E-28  6.68E-29  1.82E-29
  7.94E-29  5.90E-29  1.38E-28  3.36E-28  9.62E-29  2.55E-29  1.08E-28  4.83E-28
  9.69E-29  2.35E-29  4.59E-29  1.12E-28  6.63E-29  1.43E-28  2.58E-29  3.04E-29
  1.87E-29  2.90E-29  2.29E-28  2.93E-28  2.92E-29  1.51E-29  4.08E-29  3.34E-29
  7.47E-29  1.35E-28  6.35E-29  3.15E-29  1.29E-29  1.67E-29  1.03E-28  1.73E-29
  2.67E-28  9.89E-29  1.47E-28  9.30E-29  5.50E-29  3.08E-29  2.10E-28  6.58E-28
  2.78E-29  4.71E-29  9.06E-29  4.09E-29  1.92E-28  8.23E-28  4.67E-29  4.11E-29
  1.81E-29  4.66E-28  1.19E-29  1.65E-28  9.57E-29  5.56E-29  2.96E-29  2.70E-29
  1.28E-28  6.82E-29  2.19E-28  2.25E-29  4.97E-29  2.17E-29  8.55E-29  6.35E-29
  1.51E-29  2.07E-29  7.25E-29  6.21E-28  1.23E-28  3.48E-29  1.61E-28  3.56E-29
  5.92E-29  3.79E-29  1.61E-29  1.72E-29  5.04E-29  1.25E-28  4.37E-29  1.12E-28
  1.64E-28  4.69E-29  8.25E-29  3.65E-29  1.56E-28  3.01E-28  8.87E-30  1.12E-29
  1.38E-28  2.74E-29  1.62E-29  4.79E-29  1.85E-29  4.98E-28  3.95E-29  2.78E-28
  3.26E-29  3.33E-29  4.20E-29  1.13E-28  9.54E-29  1.36E-29  3.08E-29  9.01E-29
  2.02E-29  5.18E-29  2.18E-28  3.05E-29  7.40E-29  3.55E-28  1.88E-28  5.97E-29
  1.04E-28  2.54E-29  2.88E-29  3.14E-29  2.66E-29  1.40E-28  9.49E-29  1.46E-29
  2.02E-28  5.28E-29  4.16E-28  2.04E-29  7.17E-29  1.99E-29  1.09E-28  1.74E-28
  4.94E-29  1.21E-29  8.62E-29  8.14E-29  4.69E-29  5.53E-29  6.50E-29  1.04E-28
  1.04E-28  1.76E-29  1.13E-28  7.40E-29  4.10E-28  1.45E-29  6.16E-29  1.01E-28
  1.55E-29  1.10E-29  1.89E-29  3.27E-29  1.44E-29  1.82E-28  3.53E-29  4.81E-29
  5.39E-29  6.21E-29  1.04E-28  4.76E-29  1.51E-29  1.36E-28  7.08E-29  3.94E-28
  1.77E-28  1.22E-28  7.98E-29  2.22E-29  8.17E-29  9.19E-29  3.21E-29  1.56E-29
  5.10E-29  5.90E-29  1.15E-28  2.38E-29  2.48E-29  5.41E-29  2.05E-29  1.51E-29
  1.73E-29  1.62E-29  3.06E-29  6.85E-29  1.52E-29  1.50E-29  2.13E-29  2.15E-29
  1.56E-28  1.52E-29  1.93E-29  1.52E-28  6.51E-29  6.74E-29  4.96E-29  1.42E-29
  1.30E-28  5.12E-28  1.28E-29  2.01E-29  1.81E-29  5.29E-29  1.08E-28  2.42E-28
  1.53E-29  1.22E-29  2.34E-29  4.58E-29  1.68E-29  3.27E-29  6.62E-29  9.16E-29
  1.44E-29  1.17E-28  4.05E-29  4.69E-29  3.71E-28  3.35E-29  3.26E-29  1.94E-29
  4.79E-29  9.86E-29  1.42E-28  1.45E-29  3.55E-29  2.30E-29  1.40E-29  6.44E-29
  8.90E-29  1.87E-28  2.50E-29  1.04E-28  5.43E-29  3.63E-29  1.44E-28  1.12E-29
  4.64E-29  1.32E-28  4.68E-29  6.37E-29  9.43E-29  1.71E-28  3.95E-29  1.88E-28
  3.00E-28  4.48E-29  1.39E-29  6.79E-29  6.90E-29  5.86E-29  1.44E-29  4.11E-29
  3.38E-29  1.26E-29  1.62E-29  1.36E-29  3.58E-28  3.10E-29  5.28E-29  9.46E-29
  1.75E-29  1.38E-29  1.82E-29  1.89E-29  1.26E-29  1.65E-29  6.78E-29  2.16E-28
  1.61E-29  1.90E-29  1.14E-28  3.32E-29  1.28E-28  2.21E-29  1.62E-29  2.79E-29
  3.27E-28  8.80E-29  1.41E-28  1.59E-29  4.50E-29  1.78E-29  1.87E-29  2.05E-29
  3.54E-29  2.66E-29  2.31E-29  4.59E-28  5.23E-29  2.77E-29  2.14E-29  2.83E-29
  3.08E-29  2.13E-29  2.80E-29  1.76E-29  1.22E-28  8.42E-29  1.52E-28  1.83E-29
  1.79E-29  1.87E-29  2.33E-29  1.79E-29  9.50E-29  2.84E-29  1.39E-28  1.03E-28
  1.82E-28  9.65E-29  4.49E-29  4.91E-29  4.73E-29  2.39E-29  6.41E-29  2.63E-29
  9.68E-29  5.39E-29  5.74E-29  6.40E-29  3.93E-29  1.99E-28  3.72E-29  3.95E-29
  1.70E-29  3.47E-29  1.09E-28  2.72E-28  9.50E-29  3.96E-29  3.16E-29  5.48E-29
  3.82E-29  8.33E-29  2.96E-29  1.30E-28  4.07E-29  1.06E-28  8.84E-29  1.06E-28
  4.30E-29  7.81E-29  2.60E-29  1.17E-28  7.28E-29  3.32E-29  3.07E-29  6.70E-29
  3.78E-29  7.50E-29  5.64E-29  9.25E-29  8.80E-29  5.73E-29  3.68E-29  5.26E-29
  4.22E-29  8.27E-29  5.48E-29  2.10E-28  7.71E-29  9.31E-29  5.78E-29  1.44E-28
  4.34E-29  1.69E-28  1.65E-28  2.52E-28  1.14E-28  1.54E-28  2.34E-28  9.43E-29
  1.75E-28  3.70E-28  2.90E-28  1.40E-28  2.28E-28  1.94E-28  3.26E-28  3.18E-28
  1.99E-28  4.03E-28  3.99E-28  3.32E-28  2.76E-28  1.85E-28  4.38E-28  2.34E-28
  2.73E-28  4.05E-28  5.59E-28  4.10E-28  4.61E-28  6.66E-28  6.83E-28  2.39E-28
  3.91E-28  1.59E-27  7.18E-28  2.08E-27  1.63E-27  1.09E-27  9.28E-28  1.91E-27
  1.26E-27  2.94E-27  1.73E-27  3.67E-27  6.46E-27  3.71E-27  4.30E-27  1.64E-27
  3.01E-27  3.22E-27  5.19E-27  7.15E-27  7.22E-27  4.60E-27  9.71E-27  1.29E-26
  5.80E-27  6.16E-27  1.13E-26  1.88E-26  2.38E-26  1.94E-26  1.14E-26  5.51E-26
  1.42E-26  3.99E-26  2.37E-26  4.18E-26  5.19E-26  2.54E-26  1.23E-25  5.86E-26
  7.93E-26  7.14E-26  1.11E-25  9.76E-26  9.65E-26  6.02E-26  1.71E-25  1.24E-25
  1.17E-25  2.87E-25  4.10E-25  2.61E-25  1.69E-25  3.07E-25  3.25E-25  8.55E-26
  2.27E-25  5.88E-25  6.12E-25  1.04E-24  2.92E-25  8.56E-26  4.34E-25  1.51E-24
  3.89E-25  2.87E-25  6.37E-25  6.85E-25  8.94E-25  5.63E-25  1.01E-24  1.24E-24
  6.16E-25  9.80E-25  4.04E-25  1.93E-24  4.36E-25  4.60E-24  2.49E-24  1.23E-24
  1.04E-24  1.75E-24  1.13E-24  2.01E-24  1.11E-24  1.08E-24  3.10E-24  2.84E-24
  3.18E-24  4.41E-24  4.41E-24  3.68E-24  8.58E-24  1.48E-23  2.11E-24  5.88E-24
  9.71E-24  3.89E-24  1.77E-23  6.27E-24  2.11E-23  9.78E-24  9.05E-24  1.78E-23
  1.09E-23  2.27E-23  2.36E-23  4.25E-23  1.89E-23  2.48E-23  5.33E-23  6.79E-23
  5.11E-23  8.28E-24  3.45E-23  1.09E-22  2.59E-23  1.19E-22  1.18E-22  3.50E-23
  1.15E-22  1.18E-22  1.04E-22  1.11E-22  1.11E-22  7.85E-22  1.42E-22  2.37E-22
  2.07E-22  1.00E-21  6.44E-22  5.60E-22  2.91E-22  7.67E-22  9.37E-22  1.11E-21
  1.68E-21  2.69E-22  7.83E-22  6.63E-22  8.33E-22  1.40E-20  1.53E-21  8.59E-22
  1.80E-21  1.25E-21  9.98E-22  2.34E-21  3.87E-21  1.30E-21  2.70E-21  1.65E-21
  4.18E-21  1.54E-21  5.93E-21  1.02E-20  5.06E-21  5.16E-21  8.85E-21  3.64E-21
  7.27E-21  3.42E-21  1.44E-20  7.12E-21  2.12E-20  1.81E-20  1.17E-20  1.86E-20
  1.25E-20  2.30E-20  4.27E-20  1.18E-19  4.35E-19  6.42E-20  1.37E-20  5.19E-20
  7.09E-20  2.23E-19  5.42E-20  2.07E-20  5.30E-20  1.49E-19  1.79E-19  1.22E-19
  1.89E-19  5.93E-19  1.53E-19  6.09E-20  2.34E-20  9.31E-19  3.31E-20  2.54E-19
  3.95E-20  3.35E-19  5.69E-19  2.60E-19  3.33E-19  1.46E-19  2.10E-19  1.44E-18
  5.64E-19  7.80E-19  4.95E-19  1.39E-18  2.06E-18  3.38E-18  4.07E-19  3.19E-18
  1.27E-18  4.61E-18  2.99E-18  1.75E-18  3.15E-18  7.94E-18  1.65E-18  6.34E-18
  8.99E-18  3.31E-17  1.29E-17  1.19E-17  4.35E-17  1.23E-17  6.74E-17  7.68E-17
  6.02E-17  1.41E-17  2.77E-17  8.49E-17  6.51E-18  1.96E-17  7.70E-17  3.00E-17
  1.65E-17  5.40E-17  9.95E-17  3.98E-17  5.00E-17  3.95E-17  1.54E-16  9.71E-17
  2.45E-16  4.23E-17  8.32E-17  2.06E-16  1.14E-16  8.55E-16  8.42E-17  1.81E-16
  6.17E-16  9.14E-16  1.20E-15  6.89E-17  6.16E-16  3.67E-16  3.72E-16  3.80E-16
  6.27E-16  9.16E-16  1.20E-15  9.59E-15  2.50E-15  2.42E-14  4.46E-15  2.52E-15
  4.88E-15  2.32E-14  3.81E-15  4.86E-15  1.62E-14  2.18E-14  7.41E-15  2.13E-14
  3.86E-14  1.25E-14  1.54E-13  4.13E-14  1.65E-14  1.32E-14  1.44E-13  5.01E-14
  9.45E-15  7.69E-14  1.04E-13  7.87E-14  4.47E-14  9.64E-14  3.30E-14  2.44E-13
  9.60E-14  1.10E-13  2.49E-13  3.06E-13  2.39E-13  6.55E-13  8.04E-13  2.67E-12
  7.50E-13  2.33E-12  6.49E-13  7.90E-12  6.15E-12  2.04E-12  4.22E-12  8.92E-13
  1.42E-12  5.87E-12  3.52E-12  1.10E-11  7.14E-12  1.88E-11  1.04E-11  4.92E-12
  1.13E-11  5.58E-11  1.62E-11  1.60E-11  2.59E-11  5.77E-11  5.77E-11  7.42E-11
  6.08E-11  5.03E-11  6.26E-11  2.79E-10  6.41E-11  3.62E-10  8.13E-10  3.38E-10
  9.58E-10  6.89E-10  8.78E-10  9.22E-10  5.94E-10  1.63E-10  1.93E-10  1.82E-10
  4.67E-10  3.71E-10  3.06E-09  2.42E-09  1.80E-09  1.38E-09  2.18E-09  2.62E-09
  2.90E-09  1.23E-09  2.65E-09  1.91E-09  1.51E-09  1.89E-09  7.14E-09  4.47E-09
  3.01E-08  1.91E-08  6.17E-09  4.00E-08  2.83E-09  2.01E-08  3.16E-08  1.26E-08
  2.49E-08  1.91E-07  4.15E-08  1.99E-07  1.05E-07  1.58E-07  2.14E-07  2.62E-07
  9.19E-07  1.26E-06  2.28E-06  4.28E-07  9.22E-07  3.89E-07  8.36E-07  2.60E-06
  9.61E-07  7.62E-07  6.99E-07  1.39E-06  2.10E-06  4.68E-06  7.43E-06  1.27E-05
  6.61E-06  7.24E-06  5.89E-06  4.80E-06  4.04E-06  3.12E-06  3.76E-06  4.43E-06
 -1.1627E+00 -1.1627E+00 -1.1164E+00 -1.1162E+00 -1.1059E+00 -1.1059E+00
 -1.0688E+00 -1.0688E+00 -9.1773E-01 -8.6676E-01 -7.8529E-01 -7.4799E-01
 -7.3882E-01 -7.0409E-01 -7.0216E-01 -6.9581E-01 -6.7311E-01 -6.7295E-01
 -6.3724E-01 -6.3657E-01 -6.2663E-01 -6.0872E-01 -5.8787E-01 -5.8261E-01
 -5.6481E-01 -5.4636E-01 -5.3746E-01 -5.3701E-01 -5.3105E-01 -5.1346E-01
 -5.0845E-01 -5.0352E-01 -4.9940E-01 -4.9896E-01 -4.9016E-01 -4.7597E-01
 -4.5644E-01 -4.5413E-01 -4.4497E-01 -4.4006E-01 -4.3981E-01 -4.3433E-01
 -4.2860E-01 -4.1896E-01 -4.1018E-01 -4.0587E-01 -3.9928E-01 -3.9508E-01
 -3.9282E-01 -3.8217E-01 -3.7926E-01 -3.4856E-01 -3.4776E-01 -3.3825E-01
 -3.2702E-01 -3.2082E-01 -3.1534E-01 -3.1380E-01 -3.0837E-01 -3.0422E-01
 -2.7509E-01 -2.7479E-01 -2.6572E-01 -2.6468E-01 -2.5690E-01 -2.5625E-01
 -2.5541E-01 -2.5248E-01 -2.4491E-01 -2.4111E-01 -2.3821E-01 -2.1234E-01
 -2.0686E-01 -1.9315E-01 -1.8161E-01 -1.7880E-01 -1.5357E-02 -8.2720E-03
  2.5120E-03  2.8683E-02  2.9505E-02  3.1988E-02  5.2102E-02  5.7476E-02
  6.6630E-02  8.2099E-02  8.5490E-02  1.2800E-01  1.3746E-01  1.4377E-01
  1.4988E-01  1.5254E-01  1.8159E-01  1.8183E-01  1.8781E-01  1.9035E-01
  1.9604E-01  2.1636E-01  2.1684E-01  2.1879E-01  2.2347E-01  2.3395E-01
  2.4215E-01  2.4872E-01  2.5286E-01  2.6740E-01  2.6853E-01  2.7537E-01
  2.8360E-01  2.8674E-01  2.8774E-01  2.8879E-01  2.9454E-01  3.0558E-01
  3.0806E-01  3.3869E-01  3.4408E-01  3.5637E-01  3.5831E-01  3.6252E-01
  3.6320E-01  3.6788E-01  3.8149E-01  3.8424E-01  3.8915E-01  4.1457E-01
  4.1488E-01  4.1621E-01  4.1987E-01  4.2465E-01  4.3127E-01  4.3540E-01
  4.4592E-01  4.4967E-01  4.4978E-01  4.5158E-01  4.5340E-01  4.5888E-01
  4.6296E-01  4.6498E-01  4.6925E-01  4.7710E-01  4.7883E-01  4.7954E-01
  4.8276E-01  4.8730E-01  4.9195E-01  5.0220E-01  5.1023E-01  5.1277E-01
  5.1667E-01  5.2577E-01  5.3034E-01  5.3258E-01  5.3551E-01  5.5111E-01
  5.5169E-01  5.6461E-01  5.7837E-01  5.8034E-01  5.9296E-01  5.9716E-01
  6.0002E-01  6.0321E-01  6.3101E-01  6.3894E-01  6.6526E-01  6.6945E-01
  6.7394E-01  6.8693E-01  6.9214E-01  7.0165E-01  7.2376E-01  7.3289E-01
  7.3525E-01  7.3837E-01  7.3867E-01  7.5602E-01  7.6104E-01  7.6666E-01
  7.7670E-01  7.8949E-01  7.9129E-01  7.9800E-01  8.0003E-01  8.1168E-01
  8.1614E-01  8.1683E-01  8.1701E-01  8.1788E-01  8.2817E-01  8.3677E-01
  8.3816E-01  8.5205E-01  8.5522E-01  8.5927E-01  8.7078E-01  8.7526E-01
  8.7878E-01  8.9412E-01  9.0762E-01  9.1223E-01  9.3836E-01  9.5748E-01
  9.7275E-01  9.7881E-01  9.9582E-01  1.0021E+00  1.0040E+00  1.0109E+00
  1.0184E+00  1.0298E+00  1.0502E+00  1.0610E+00  1.0621E+00  1.0623E+00
  1.0652E+00  1.0746E+00  1.0826E+00  1.0910E+00  1.0914E+00  1.1087E+00
  1.1197E+00  1.1259E+00  1.1262E+00  1.1281E+00  1.1282E+00  1.1283E+00
  1.1288E+00  1.1327E+00  1.1480E+00  1.1532E+00  1.1580E+00  1.1599E+00
  1.1652E+00  1.1661E+00  1.1708E+00  1.1829E+00  1.1872E+00  1.2017E+00
  1.2050E+00  1.2094E+00  1.2127E+00  1.2211E+00  1.2229E+00  1.2287E+00
  1.2295E+00  1.2346E+00  1.2431E+00  1.2437E+00  1.2480E+00  1.2481E+00
  1.2503E+00  1.2598E+00  1.2671E+00  1.2689E+00  1.2697E+00  1.2809E+00
  1.2895E+00  1.2918E+00  1.3052E+00  1.3095E+00  1.3150E+00  1.3239E+00
  1.3251E+00  1.3333E+00  1.3349E+00  1.3600E+00  1.3615E+00  1.3685E+00
  1.3762E+00  1.3829E+00  1.3850E+00  1.3920E+00  1.3954E+00  1.3983E+00
  1.3989E+00  1.4001E+00  1.4021E+00  1.4168E+00  1.4203E+00  1.4308E+00
  1.4317E+00  1.4355E+00  1.4361E+00  1.4364E+00  1.4475E+00  1.4497E+00
  1.4508E+00  1.4523E+00  1.4603E+00  1.4612E+00  1.4653E+00  1.4664E+00
  1.4744E+00  1.4775E+00  1.4798E+00  1.4799E+00  1.4861E+00  1.4877E+00
  1.4992E+00  1.5003E+00  1.5067E+00  1.5083E+00  1.5084E+00  1.5171E+00
  1.5192E+00  1.5215E+00  1.5215E+00  1.5259E+00  1.5272E+00  1.5335E+00
  1.5339E+00  1.5343E+00  1.5399E+00  1.5468E+00  1.5469E+00  1.5519E+00
  1.5530E+00  1.5598E+00  1.5721E+00  1.5726E+00  1.5748E+00  1.5777E+00
  1.5795E+00  1.5835E+00  1.5894E+00  1.5930E+00  1.6040E+00  1.6152E+00
  1.6214E+00  1.6253E+00  1.6291E+00  1.6307E+00  1.6320E+00  1.6339E+00
  1.6362E+00  1.6394E+00  1.6591E+00  1.6614E+00  1.6642E+00  1.6676E+00
  1.6692E+00  1.6713E+00  1.6718E+00  1.6754E+00  1.6859E+00  1.6862E+00
  1.6868E+00  1.6874E+00  1.6921E+00  1.6928E+00  1.6946E+00  1.6981E+00
  1.7040E+00  1.7054E+00  1.7121E+00  1.7124E+00  1.7148E+00  1.7211E+00
  1.7235E+00  1.7243E+00  1.7279E+00  1.7287E+00  1.7297E+00  1.7317E+00
  1.7336E+00  1.7359E+00  1.7361E+00  1.7364E+00  1.7365E+00  1.7377E+00
  1.7420E+00  1.7426E+00  1.7451E+00  1.7481E+00  1.7515E+00  1.7527E+00
  1.7534E+00  1.7572E+00  1.7575E+00  1.7579E+00  1.7595E+00  1.7629E+00
  1.7634E+00  1.7644E+00  1.7647E+00  1.7657E+00  1.7674E+00  1.7675E+00
  1.7749E+00  1.7749E+00  1.7752E+00  1.7783E+00  1.7815E+00  1.7831E+00
  1.7835E+00  1.7858E+00  1.7889E+00  1.7913E+00  1.7922E+00  1.7941E+00
  1.7953E+00  1.7970E+00  1.8005E+00  1.8014E+00  1.8072E+00  1.8075E+00
  1.8138E+00  1.8149E+00  1.8157E+00  1.8210E+00  1.8289E+00  1.8323E+00
  1.8340E+00  1.8348E+00  1.8352E+00  1.8363E+00  1.8464E+00  1.8475E+00
  1.8566E+00  1.8569E+00  1.8583E+00  1.8584E+00  1.8624E+00  1.8685E+00
  1.8721E+00  1.8728E+00  1.8731E+00  1.8737E+00  1.8760E+00  1.8825E+00
  1.8828E+00  1.8849E+00  1.8863E+00  1.8892E+00  1.8913E+00  1.8934E+00
  1.8936E+00  1.9026E+00  1.9036E+00  1.9108E+00  1.9158E+00  1.9164E+00
  1.9186E+00  1.9202E+00  1.9214E+00  1.9242E+00  1.9264E+00  1.9268E+00
  1.9281E+00  1.9339E+00  1.9402E+00  1.9408E+00  1.9411E+00  1.9431E+00
  1.9509E+00  1.9512E+00  1.9527E+00  1.9539E+00  1.9615E+00  1.9652E+00
  1.9660E+00  1.9676E+00  1.9715E+00  1.9790E+00  1.9792E+00  1.9804E+00
  1.9849E+00  1.9851E+00  1.9926E+00  1.9973E+00  2.0009E+00  2.0020E+00
  2.0035E+00  2.0036E+00  2.0037E+00  2.0041E+00  2.0093E+00  2.0105E+00
  2.0115E+00  2.0120E+00  2.0123E+00  2.0130E+00  2.0158E+00  2.0205E+00
  2.0210E+00  2.0211E+00  2.0213E+00  2.0218E+00  2.0222E+00  2.0245E+00
  2.0250E+00  2.0277E+00  2.0277E+00  2.0286E+00  2.0301E+00  2.0322E+00
  2.0342E+00  2.0353E+00  2.0369E+00  2.0407E+00  2.0416E+00  2.0417E+00
  2.0439E+00  2.0442E+00  2.0445E+00  2.0469E+00  2.0473E+00  2.0512E+00
  2.0516E+00  2.0547E+00  2.0588E+00  2.0590E+00  2.0592E+00  2.0594E+00
  2.0649E+00  2.0650E+00  2.0660E+00  2.0672E+00  2.0693E+00  2.0695E+00
  2.0700E+00  2.0745E+00  2.0778E+00  2.0797E+00  2.0812E+00  2.0830E+00
  2.0838E+00  2.0862E+00  2.0878E+00  2.0883E+00  2.0884E+00  2.0890E+00
  2.0949E+00  2.0981E+00  2.0986E+00  2.0992E+00  2.1003E+00  2.1017E+00
  2.1076E+00  2.1083E+00  2.1093E+00  2.1101E+00  2.1118E+00  2.1120E+00
  2.1172E+00  2.1172E+00  2.1186E+00  2.1258E+00  2.1286E+00  2.1304E+00
  2.1314E+00  2.1388E+00  2.1400E+00  2.1417E+00  2.1427E+00  2.1433E+00
  2.1439E+00  2.1458E+00  2.1521E+00  2.1555E+00  2.1558E+00  2.1577E+00
  2.1606E+00  2.1627E+00  2.1664E+00  2.1667E+00  2.1681E+00  2.1759E+00
  2.1765E+00  2.1796E+00  2.1828E+00  2.1873E+00  2.1908E+00  2.1917E+00
  2.1938E+00  2.1975E+00  2.1977E+00  2.1981E+00  2.2054E+00  2.2061E+00
  2.2136E+00  2.2157E+00  2.2195E+00  2.2200E+00  2.2224E+00  2.2229E+00
  2.2254E+00  2.2285E+00  2.2313E+00  2.2320E+00  2.2362E+00  2.2371E+00
  2.2383E+00  2.2394E+00  2.2403E+00  2.2485E+00  2.2492E+00  2.2509E+00
  2.2546E+00  2.2549E+00  2.2549E+00  2.2564E+00  2.2641E+00  2.2656E+00
  2.2658E+00  2.2686E+00  2.2749E+00  2.2775E+00  2.2798E+00  2.2813E+00
  2.2817E+00  2.2828E+00  2.2883E+00  2.2950E+00  2.2953E+00  2.3017E+00
  2.3058E+00  2.3081E+00  2.3107E+00  2.3118E+00  2.3196E+00  2.3201E+00
  2.3207E+00  2.3212E+00  2.3240E+00  2.3242E+00  2.3261E+00  2.3268E+00
  2.3273E+00  2.3322E+00  2.3331E+00  2.3343E+00  2.3372E+00  2.3413E+00
  2.3490E+00  2.3507E+00  2.3509E+00  2.3573E+00  2.3579E+00  2.3594E+00
  2.3630E+00  2.3662E+00  2.3697E+00  2.3722E+00  2.3752E+00  2.3790E+00
  2.3823E+00  2.3843E+00  2.3924E+00  2.3947E+00  2.3952E+00  2.3964E+00
  2.3967E+00  2.3990E+00  2.4044E+00  2.4068E+00  2.4088E+00  2.4109E+00
  2.4117E+00  2.4138E+00  2.4183E+00  2.4205E+00  2.4216E+00  2.4254E+00
  2.4260E+00  2.4263E+00  2.4288E+00  2.4348E+00  2.4352E+00  2.4377E+00
  2.4416E+00  2.4437E+00  2.4459E+00  2.4467E+00  2.4552E+00  2.4584E+00
  2.4620E+00  2.4631E+00  2.4697E+00  2.4699E+00  2.4764E+00  2.4773E+00
  2.4815E+00  2.4830E+00  2.4832E+00  2.4923E+00  2.4931E+00  2.4984E+00
  2.5000E+00  2.5005E+00  2.5042E+00  2.5051E+00  2.5068E+00  2.5094E+00
  2.5109E+00  2.5109E+00  2.5141E+00  2.5200E+00  2.5244E+00  2.5288E+00
  2.5297E+00  2.5300E+00  2.5323E+00  2.5324E+00  2.5334E+00  2.5371E+00
  2.5397E+00  2.5403E+00  2.5413E+00  2.5414E+00  2.5430E+00  2.5432E+00
  2.5442E+00  2.5444E+00  2.5450E+00  2.5470E+00  2.5496E+00  2.5501E+00
  2.5539E+00  2.5574E+00  2.5598E+00  2.5607E+00  2.5634E+00  2.5636E+00
  2.5656E+00  2.5680E+00  2.5688E+00  2.5691E+00  2.5729E+00  2.5736E+00
  2.5769E+00  2.5794E+00  2.5800E+00  2.5868E+00  2.5869E+00  2.5874E+00
  2.5930E+00  2.5934E+00  2.5935E+00  2.5977E+00  2.5982E+00  2.6021E+00
  2.6024E+00  2.6027E+00  2.6028E+00  2.6072E+00  2.6090E+00  2.6122E+00
  2.6125E+00  2.6202E+00  2.6213E+00  2.6217E+00  2.6240E+00  2.6254E+00
  2.6268E+00  2.6277E+00  2.6283E+00  2.6292E+00  2.6320E+00  2.6327E+00
  2.6344E+00  2.6346E+00  2.6348E+00  2.6349E+00  2.6363E+00  2.6384E+00
  2.6404E+00  2.6417E+00  2.6449E+00  2.6451E+00  2.6469E+00  2.6475E+00
  2.6481E+00  2.6493E+00  2.6505E+00  2.6526E+00  2.6531E+00  2.6569E+00
  2.6581E+00  2.6585E+00  2.6611E+00  2.6614E+00  2.6643E+00  2.6648E+00
  2.6731E+00  2.6736E+00  2.6772E+00  2.6801E+00  2.6810E+00  2.6823E+00
  2.6826E+00  2.6832E+00  2.6851E+00  2.6869E+00  2.6894E+00  2.6894E+00
  2.6898E+00  2.6951E+00  2.6954E+00  2.6958E+00  2.7001E+00  2.7006E+00
  2.7033E+00  2.7044E+00  2.7060E+00  2.7069E+00  2.7077E+00  2.7103E+00
  2.7146E+00  2.7186E+00  2.7186E+00  2.7189E+00  2.7189E+00  2.7222E+00
  2.7223E+00  2.7226E+00  2.7242E+00  2.7305E+00  2.7318E+00  2.7323E+00
  2.7343E+00  2.7366E+00  2.7370E+00  2.7398E+00  2.7421E+00  2.7438E+00
  2.7494E+00  2.7523E+00  2.7533E+00  2.7544E+00  2.7554E+00  2.7570E+00
  2.7612E+00  2.7615E+00  2.7632E+00  2.7645E+00  2.7645E+00  2.7700E+00
  2.7710E+00  2.7739E+00  2.7771E+00  2.7792E+00  2.7842E+00  2.7857E+00
  2.7861E+00  2.7861E+00  2.7910E+00  2.7933E+00  2.7958E+00  2.7959E+00
  2.7988E+00  2.7996E+00  2.8069E+00  2.8076E+00  2.8093E+00  2.8109E+00
  2.8120E+00  2.8141E+00  2.8150E+00  2.8168E+00  2.8185E+00  2.8187E+00
  2.8194E+00  2.8241E+00  2.8242E+00  2.8243E+00  2.8245E+00  2.8271E+00
  2.8282E+00  2.8283E+00  2.8293E+00  2.8298E+00  2.8298E+00  2.8310E+00
  2.8316E+00  2.8323E+00  2.8326E+00  2.8352E+00  2.8364E+00  2.8372E+00
  2.8375E+00  2.8377E+00  2.8381E+00  2.8381E+00  2.8389E+00  2.8390E+00
  2.8419E+00  2.8440E+00  2.8444E+00  2.8450E+00  2.8474E+00  2.8492E+00
  2.8503E+00  2.8512E+00  2.8540E+00  2.8546E+00  2.8556E+00  2.8558E+00
  2.8567E+00  2.8575E+00  2.8592E+00  2.8613E+00  2.8618E+00  2.8642E+00
  2.8647E+00  2.8669E+00  2.8674E+00  2.8730E+00  2.8734E+00  2.8739E+00
  2.8741E+00  2.8770E+00  2.8778E+00  2.8784E+00  2.8791E+00  2.8837E+00
  2.8846E+00  2.8851E+00  2.8853E+00  2.8915E+00  2.8935E+00  2.8939E+00
  2.8939E+00  2.8955E+00  2.8960E+00  2.8960E+00  2.8961E+00  2.8965E+00
  2.8972E+00  2.8984E+00  2.8989E+00  2.8995E+00  2.8999E+00  2.9003E+00
  2.9026E+00  2.9044E+00  2.9045E+00  2.9069E+00  2.9076E+00  2.9077E+00
  2.9079E+00  2.9080E+00  2.9081E+00  2.9094E+00  2.9135E+00  2.9150E+00
  2.9154E+00  2.9163E+00  2.9172E+00  2.9195E+00  2.9196E+00  2.9224E+00
  2.9230E+00  2.9234E+00  2.9239E+00  2.9248E+00  2.9278E+00  2.9298E+00
  2.9303E+00  2.9311E+00  2.9311E+00  2.9319E+00  2.9322E+00  2.9323E+00
  2.9324E+00  2.9344E+00  2.9353E+00  2.9356E+00  2.9358E+00  2.9374E+00
  2.9399E+00  2.9441E+00  2.9457E+00  2.9466E+00  2.9474E+00  2.9482E+00
  2.9508E+00  2.9510E+00  2.9533E+00  2.9538E+00  2.9552E+00  2.9563E+00
  2.9566E+00  2.9594E+00  2.9595E+00  2.9604E+00  2.9612E+00  2.9615E+00
  2.9619E+00  2.9634E+00  2.9654E+00  2.9672E+00  2.9673E+00  2.9701E+00
  2.9702E+00  2.9706E+00  2.9717E+00  2.9726E+00  2.9750E+00  2.9757E+00
  2.9776E+00  2.9785E+00  2.9815E+00  2.9834E+00  2.9843E+00  2.9875E+00
  2.9876E+00  2.9878E+00  2.9878E+00  2.9905E+00  2.9921E+00  2.9934E+00
  2.9941E+00  2.9947E+00  2.9950E+00  2.9976E+00  2.9982E+00  2.9997E+00
  3.0028E+00  3.0036E+00  3.0055E+00  3.0092E+00  3.0111E+00  3.0111E+00
  3.0113E+00  3.0145E+00  3.0153E+00  3.0163E+00  3.0167E+00  3.0168E+00
  3.0223E+00  3.0227E+00  3.0232E+00  3.0238E+00  3.0243E+00  3.0265E+00
  3.0296E+00  3.0310E+00  3.0317E+00  3.0352E+00  3.0371E+00  3.0372E+00
  3.0373E+00  3.0386E+00  3.0401E+00  3.0467E+00  3.0491E+00  3.0505E+00
  3.0514E+00  3.0520E+00  3.0520E+00  3.0523E+00  3.0553E+00  3.0580E+00
  3.0614E+00  3.0616E+00  3.0636E+00  3.0647E+00  3.0663E+00  3.0676E+00
  3.0678E+00  3.0696E+00  3.0707E+00  3.0709E+00  3.0711E+00  3.0728E+00
  3.0739E+00  3.0742E+00  3.0778E+00  3.0790E+00  3.0794E+00  3.0796E+00
  3.0828E+00  3.0833E+00  3.0857E+00  3.0860E+00  3.0868E+00  3.0889E+00
  3.0943E+00  3.0956E+00  3.0963E+00  3.0989E+00  3.1000E+00  3.1041E+00
  3.1044E+00  3.1053E+00  3.1054E+00  3.1111E+00  3.1123E+00  3.1125E+00
  3.1139E+00  3.1157E+00  3.1158E+00  3.1161E+00  3.1174E+00  3.1204E+00
  3.1211E+00  3.1212E+00  3.1243E+00  3.1282E+00  3.1287E+00  3.1292E+00
  3.1293E+00  3.1311E+00  3.1326E+00  3.1327E+00  3.1336E+00  3.1344E+00
  3.1347E+00  3.1373E+00  3.1380E+00  3.1416E+00  3.1418E+00  3.1429E+00
  3.1475E+00  3.1484E+00  3.1501E+00  3.1523E+00  3.1549E+00  3.1590E+00
  3.1621E+00  3.1633E+00  3.1653E+00  3.1704E+00  3.1736E+00  3.1775E+00
  3.1805E+00  3.1814E+00  3.1843E+00  3.1847E+00  3.1855E+00  3.1874E+00
  3.1879E+00  3.1894E+00  3.1928E+00  3.1928E+00  3.1973E+00  3.1982E+00
  3.1987E+00  3.1991E+00  3.2016E+00  3.2025E+00  3.2026E+00  3.2033E+00
  3.2060E+00  3.2068E+00  3.2078E+00  3.2114E+00  3.2114E+00  3.2161E+00
  3.2165E+00  3.2171E+00  3.2202E+00  3.2203E+00  3.2245E+00  3.2245E+00
  3.2246E+00  3.2256E+00  3.2257E+00  3.2285E+00  3.2326E+00  3.2358E+00
  3.2389E+00  3.2393E+00  3.2393E+00  3.2398E+00  3.2426E+00  3.2432E+00
  3.2435E+00  3.2447E+00  3.2449E+00  3.2450E+00  3.2454E+00  3.2457E+00
  3.2523E+00  3.2572E+00  3.2576E+00  3.2585E+00  3.2615E+00  3.2620E+00
  3.2630E+00  3.2666E+00  3.2685E+00  3.2701E+00  3.2702E+00  3.2724E+00
  3.2740E+00  3.2788E+00  3.2814E+00  3.2842E+00  3.2857E+00  3.2859E+00
  3.2904E+00  3.2931E+00  3.2947E+00  3.2951E+00  3.2961E+00  3.2981E+00
  3.2983E+00  3.3002E+00  3.3054E+00  3.3096E+00  3.3125E+00  3.3131E+00
  3.3165E+00  3.3185E+00  3.3187E+00  3.3200E+00  3.3239E+00  3.3239E+00
  3.3240E+00  3.3242E+00  3.3274E+00  3.3286E+00  3.3297E+00  3.3301E+00
  3.3309E+00  3.3334E+00  3.3338E+00  3.3364E+00  3.3368E+00  3.3388E+00
  3.3430E+00  3.3440E+00  3.3479E+00  3.3515E+00  3.3527E+00  3.3531E+00
  3.3537E+00  3.3543E+00  3.3545E+00  3.3551E+00  3.3630E+00  3.3633E+00
  3.3636E+00  3.3663E+00  3.3673E+00  3.3681E+00  3.3683E+00  3.3713E+00
  3.3728E+00  3.3738E+00  3.3747E+00  3.3753E+00  3.3754E+00  3.3821E+00
  3.3835E+00  3.3842E+00  3.3849E+00  3.3855E+00  3.3902E+00  3.3933E+00
  3.3976E+00  3.3981E+00  3.4020E+00  3.4044E+00  3.4047E+00  3.4048E+00
  3.4064E+00  3.4071E+00  3.4089E+00  3.4101E+00  3.4128E+00  3.4139E+00
  3.4140E+00  3.4186E+00  3.4187E+00  3.4214E+00  3.4220E+00  3.4251E+00
  3.4254E+00  3.4273E+00  3.4288E+00  3.4303E+00  3.4349E+00  3.4368E+00
  3.4380E+00  3.4432E+00  3.4455E+00  3.4461E+00  3.4472E+00  3.4473E+00
  3.4477E+00  3.4501E+00  3.4510E+00  3.4545E+00  3.4550E+00  3.4583E+00
  3.4617E+00  3.4620E+00  3.4656E+00  3.4665E+00  3.4691E+00  3.4718E+00
  3.4745E+00  3.4789E+00  3.4798E+00  3.4810E+00  3.4818E+00  3.4820E+00
  3.4844E+00  3.4852E+00  3.4883E+00  3.4888E+00  3.4927E+00  3.4941E+00
  3.4945E+00  3.4965E+00  3.4975E+00  3.5000E+00  3.5009E+00  3.5020E+00
  3.5023E+00  3.5057E+00  3.5121E+00  3.5123E+00  3.5148E+00  3.5162E+00
  3.5173E+00  3.5201E+00  3.5261E+00  3.5277E+00  3.5292E+00  3.5309E+00
  3.5323E+00  3.5332E+00  3.5342E+00  3.5353E+00  3.5384E+00  3.5405E+00
  3.5409E+00  3.5437E+00  3.5452E+00  3.5454E+00  3.5473E+00  3.5480E+00
  3.5490E+00  3.5491E+00  3.5507E+00  3.5532E+00  3.5579E+00  3.5582E+00
  3.5591E+00  3.5595E+00  3.5603E+00  3.5606E+00  3.5617E+00  3.5655E+00
  3.5674E+00  3.5683E+00  3.5701E+00  3.5783E+00  3.5792E+00  3.5801E+00
  3.5822E+00  3.5841E+00  3.5875E+00  3.5915E+00  3.5921E+00  3.5941E+00
  3.5963E+00  3.5975E+00  3.6001E+00  3.6005E+00  3.6061E+00  3.6119E+00
  3.6136E+00  3.6150E+00  3.6157E+00  3.6177E+00  3.6197E+00  3.6211E+00
  3.6217E+00  3.6218E+00  3.6221E+00  3.6225E+00  3.6237E+00  3.6299E+00
  3.6305E+00  3.6311E+00  3.6317E+00  3.6351E+00  3.6361E+00  3.6410E+00
  3.6427E+00  3.6441E+00  3.6448E+00  3.6457E+00  3.6475E+00  3.6481E+00
  3.6512E+00  3.6528E+00  3.6571E+00  3.6583E+00  3.6594E+00  3.6674E+00
  3.6679E+00  3.6703E+00  3.6706E+00  3.6709E+00  3.6727E+00  3.6748E+00
  3.6754E+00  3.6758E+00  3.6775E+00  3.6801E+00  3.6829E+00  3.6850E+00
  3.6861E+00  3.6881E+00  3.6881E+00  3.6894E+00  3.6903E+00  3.6935E+00
  3.6955E+00  3.6969E+00  3.6994E+00  3.6998E+00  3.6998E+00  3.6999E+00
  3.7009E+00  3.7014E+00  3.7030E+00  3.7034E+00  3.7044E+00  3.7078E+00
  3.7082E+00  3.7087E+00  3.7095E+00  3.7107E+00  3.7114E+00  3.7115E+00
  3.7122E+00  3.7123E+00  3.7156E+00  3.7160E+00  3.7165E+00  3.7166E+00
  3.7182E+00  3.7186E+00  3.7193E+00  3.7200E+00  3.7219E+00  3.7219E+00
  3.7224E+00  3.7240E+00  3.7262E+00  3.7277E+00  3.7283E+00  3.7314E+00
  3.7349E+00  3.7358E+00  3.7374E+00  3.7375E+00  3.7390E+00  3.7392E+00
  3.7392E+00  3.7397E+00  3.7399E+00  3.7424E+00  3.7441E+00  3.7453E+00
  3.7469E+00  3.7488E+00  3.7554E+00  3.7568E+00  3.7570E+00  3.7572E+00
  3.7593E+00  3.7593E+00  3.7599E+00  3.7618E+00  3.7636E+00  3.7653E+00
  3.7668E+00  3.7683E+00  3.7683E+00  3.7689E+00  3.7748E+00  3.7750E+00
  3.7751E+00  3.7765E+00  3.7799E+00  3.7800E+00  3.7801E+00  3.7825E+00
  3.7851E+00  3.7873E+00  3.7886E+00  3.7917E+00  3.7929E+00  3.7933E+00
  3.7941E+00  3.7981E+00  3.7986E+00  3.7989E+00  3.7997E+00  3.8046E+00
  3.8071E+00  3.8077E+00  3.8084E+00  3.8084E+00  3.8109E+00  3.8112E+00
  3.8114E+00  3.8116E+00  3.8132E+00  3.8171E+00  3.8189E+00  3.8200E+00
  3.8214E+00  3.8221E+00  3.8232E+00  3.8235E+00  3.8242E+00  3.8255E+00
  3.8272E+00  3.8284E+00  3.8329E+00  3.8330E+00  3.8331E+00  3.8359E+00
  3.8368E+00  3.8384E+00  3.8404E+00  3.8436E+00  3.8448E+00  3.8469E+00
  3.8483E+00  3.8515E+00  3.8526E+00  3.8526E+00  3.8539E+00  3.8580E+00
  3.8588E+00  3.8591E+00  3.8618E+00  3.8626E+00  3.8643E+00  3.8645E+00
  3.8677E+00  3.8681E+00  3.8694E+00  3.8706E+00  3.8713E+00  3.8717E+00
  3.8721E+00  3.8737E+00  3.8754E+00  3.8759E+00  3.8764E+00  3.8769E+00
  3.8814E+00  3.8818E+00  3.8824E+00  3.8842E+00  3.8851E+00  3.8861E+00
  3.8864E+00  3.8865E+00  3.8888E+00  3.8917E+00  3.8931E+00  3.8946E+00
  3.8950E+00  3.8958E+00  3.8984E+00  3.8988E+00  3.8996E+00  3.9001E+00
  3.9040E+00  3.9096E+00  3.9104E+00  3.9114E+00  3.9131E+00  3.9137E+00
  3.9143E+00  3.9148E+00  3.9152E+00  3.9166E+00  3.9196E+00  3.9206E+00
  3.9214E+00  3.9225E+00  3.9227E+00  3.9233E+00  3.9238E+00  3.9252E+00
  3.9272E+00  3.9293E+00  3.9308E+00  3.9328E+00  3.9349E+00  3.9396E+00
  3.9402E+00  3.9410E+00  3.9415E+00  3.9422E+00  3.9429E+00  3.9438E+00
  3.9443E+00  3.9444E+00  3.9458E+00  3.9471E+00  3.9480E+00  3.9494E+00
  3.9528E+00  3.9539E+00  3.9545E+00  3.9547E+00  3.9582E+00  3.9614E+00
  3.9632E+00  3.9652E+00  3.9655E+00  3.9662E+00  3.9681E+00  3.9715E+00
  3.9741E+00  3.9781E+00  3.9788E+00  3.9808E+00  3.9813E+00  3.9817E+00
  3.9827E+00  3.9845E+00  3.9849E+00  3.9888E+00  3.9905E+00  3.9931E+00
  3.9946E+00  3.9947E+00  3.9953E+00  3.9967E+00  3.9999E+00  4.0001E+00
  4.0016E+00  4.0024E+00  4.0031E+00  4.0045E+00  4.0060E+00  4.0061E+00
  4.0105E+00  4.0107E+00  4.0118E+00  4.0139E+00  4.0155E+00  4.0172E+00
  4.0200E+00  4.0213E+00  4.0232E+00  4.0261E+00  4.0263E+00  4.0290E+00
  4.0294E+00  4.0301E+00  4.0321E+00  4.0346E+00  4.0355E+00  4.0371E+00
  4.0385E+00  4.0437E+00  4.0447E+00  4.0449E+00  4.0456E+00  4.0462E+00
  4.0475E+00  4.0481E+00  4.0499E+00  4.0516E+00  4.0540E+00  4.0551E+00
  4.0573E+00  4.0582E+00  4.0588E+00  4.0594E+00  4.0626E+00  4.0645E+00
  4.0663E+00  4.0678E+00  4.0679E+00  4.0708E+00  4.0721E+00  4.0733E+00
  4.0765E+00  4.0782E+00  4.0784E+00  4.0809E+00  4.0841E+00  4.0841E+00
  4.0862E+00  4.0870E+00  4.0877E+00  4.0882E+00  4.0889E+00  4.0891E+00
  4.0904E+00  4.0906E+00  4.0914E+00  4.0918E+00  4.0928E+00  4.0939E+00
  4.0939E+00  4.0963E+00  4.0974E+00  4.0992E+00  4.1003E+00  4.1007E+00
  4.1008E+00  4.1012E+00  4.1048E+00  4.1073E+00  4.1075E+00  4.1076E+00
  4.1113E+00  4.1123E+00  4.1130E+00  4.1135E+00  4.1137E+00  4.1138E+00
  4.1148E+00  4.1169E+00  4.1180E+00  4.1214E+00  4.1264E+00  4.1287E+00
  4.1296E+00  4.1306E+00  4.1330E+00  4.1335E+00  4.1339E+00  4.1358E+00
  4.1367E+00  4.1388E+00  4.1424E+00  4.1436E+00  4.1448E+00  4.1475E+00
  4.1480E+00  4.1496E+00  4.1509E+00  4.1524E+00  4.1544E+00  4.1558E+00
  4.1600E+00  4.1611E+00  4.1630E+00  4.1643E+00  4.1644E+00  4.1658E+00
  prteigrs : nnsclo,ikpt=  100    1 max resid (incl. the buffer)=  1.26630E-05
 prteigrs : prtvol=0 or 1, do not print more k-points.
 
  prteigrs : nnsclo,ikpt=  100    2 max resid (incl. the buffer)=  6.46600E-06
  prteigrs : nnsclo,ikpt=  100    3 max resid (incl. the buffer)=  1.01979E-05
  prteigrs : nnsclo,ikpt=  100    4 max resid (incl. the buffer)=  6.90999E-06
  prteigrs : nnsclo,ikpt=  100    5 max resid (incl. the buffer)=  1.48247E-05
  prteigrs : nnsclo,ikpt=  100    6 max resid (incl. the buffer)=  9.59147E-06
  prteigrs : nnsclo,ikpt=  100    7 max resid (incl. the buffer)=  7.81018E-06
  prteigrs : nnsclo,ikpt=  100    8 max resid (incl. the buffer)=  1.74693E-05
  prteigrs : nnsclo,ikpt=  100    9 max resid (incl. the buffer)=  1.32794E-05
  prteigrs : nnsclo,ikpt=  100   10 max resid (incl. the buffer)=  8.66512E-06
  prteigrs : nnsclo,ikpt=  100   11 max resid (incl. the buffer)=  9.81396E-06
  prteigrs : nnsclo,ikpt=  100   12 max resid (incl. the buffer)=  8.66845E-06
  prteigrs : nnsclo,ikpt=  100   13 max resid (incl. the buffer)=  7.61628E-06
  prteigrs : nnsclo,ikpt=  100   14 max resid (incl. the buffer)=  1.14777E-05
  prteigrs : nnsclo,ikpt=  100   15 max resid (incl. the buffer)=  8.93748E-06
  prteigrs : nnsclo,ikpt=  100   16 max resid (incl. the buffer)=  1.37373E-05
 
 
Result for kinetic energy density :
 
--------------------------------------------------------------------------------
 Total kinetic energy density [Ha/Bohr^3]
      Maximum=    3.4520E+01  at reduced coord.    0.5000    0.5000    0.6000
      Minimum=    1.7550E-06  at reduced coord.    0.5185    0.1833    0.0000
   Integrated=    2.3849E+02
--------------------------------------------------------------------------------

--- !ResultsGS
iteration_state: {dtset: 2, }
comment   : Summary of ground state results
lattice_vectors:
- [  8.2242179,   0.0000000,   0.0000000, ]
- [  0.0000000,   8.5842826,   0.0000000, ]
- [  0.0000000,   0.0000000,  81.2582237, ]
lattice_lengths: [   8.22422,    8.58428,   81.25822, ]
lattice_angles: [ 90.000,  90.000,  90.000, ] # degrees, (23, 13, 12)
lattice_volume:   5.7367502E+03
convergence: {deltae:  0.000E+00, res2:  0.000E+00, residm:  9.954E-19, diffor:  0.000E+00, }
etotal    :  -2.59245134E+02
entropy   :   0.00000000E+00
fermie    :  -1.78799609E-01
cartesian_stress_tensor: null
pressure_GPa: null
xred      :
- [  4.3204E-01,   4.0602E-01,   4.2901E-01,  C]
- [  5.6796E-01,   5.9398E-01,   5.7099E-01,  C]
- [  9.3204E-01,   5.9398E-01,   5.7099E-01,  C]
- [  6.7959E-02,   4.0602E-01,   4.2901E-01,  C]
- [  6.7959E-02,   9.0602E-01,   5.7099E-01,  C]
- [  9.3204E-01,   9.3982E-02,   4.2901E-01,  C]
- [  5.6796E-01,   9.3982E-02,   4.2901E-01,  C]
- [  4.3204E-01,   9.0602E-01,   5.7099E-01,  C]
- [  4.3813E-01,   4.1711E-01,   4.8543E-01,  C]
- [  5.6187E-01,   5.8289E-01,   5.1457E-01,  C]
- [  9.3813E-01,   5.8289E-01,   5.1457E-01,  C]
- [  6.1875E-02,   4.1711E-01,   4.8543E-01,  C]
- [  6.1875E-02,   9.1711E-01,   5.1457E-01,  C]
- [  9.3813E-01,   8.2889E-02,   4.8543E-01,  C]
- [  5.6187E-01,   8.2889E-02,   4.8543E-01,  C]
- [  4.3813E-01,   9.1711E-01,   5.1457E-01,  C]
- [  4.3605E-01,   4.1299E-01,   5.4378E-01,  C]
- [  5.6395E-01,   5.8701E-01,   4.5622E-01,  C]
- [  9.3605E-01,   5.8701E-01,   4.5622E-01,  C]
- [  6.3949E-02,   4.1299E-01,   5.4378E-01,  C]
- [  6.3949E-02,   9.1299E-01,   4.5622E-01,  C]
- [  9.3605E-01,   8.7006E-02,   5.4378E-01,  C]
- [  5.6395E-01,   8.7006E-02,   5.4378E-01,  C]
- [  4.3605E-01,   9.1299E-01,   4.5622E-01,  C]
- [ -6.3122E-04,   9.9362E-01,   4.0024E-01,  F]
- [  1.0006E+00,   6.3792E-03,   5.9976E-01,  F]
- [  4.9937E-01,   6.3792E-03,   5.9976E-01,  F]
- [  5.0063E-01,   9.9362E-01,   4.0024E-01,  F]
- [  5.0063E-01,   4.9362E-01,   5.9976E-01,  F]
- [  4.9937E-01,   5.0638E-01,   4.0024E-01,  F]
- [  1.0006E+00,   5.0638E-01,   4.0024E-01,  F]
- [ -6.3122E-04,   4.9362E-01,   5.9976E-01,  F]
cartesian_forces: null
force_length_stats: {min: null, max: null, mean: null, }
...

 Integrated electronic density in atomic spheres:
 ------------------------------------------------
 Atom  Sphere_radius  Integrated_density
    1        2.00000          4.99515540
    2        2.00000          4.99515540
    3        2.00000          4.99515540
    4        2.00000          4.99515540
    5        2.00000          4.99515540
    6        2.00000          4.99515540
    7        2.00000          4.99515540
    8        2.00000          4.99515540
    9        2.00000          4.43483851
   10        2.00000          4.43483851
   11        2.00000          4.43483851
   12        2.00000          4.43483851
   13        2.00000          4.43483851
   14        2.00000          4.43483851
   15        2.00000          4.43483851
   16        2.00000          4.43483851
   17        2.00000          4.50975288
   18        2.00000          4.50975288
   19        2.00000          4.50975288
   20        2.00000          4.50975288
   21        2.00000          4.50975288
   22        2.00000          4.50975288
   23        2.00000          4.50975288
   24        2.00000          4.50975288
   25        2.00000          7.30906361
   26        2.00000          7.30906361
   27        2.00000          7.30906361
   28        2.00000          7.30906361
   29        2.00000          7.30906361
   30        2.00000          7.30906361
   31        2.00000          7.30906361
   32        2.00000          7.30906361
================================================================================
 
 ----iterations are completed or convergence reached----
 
 Mean square residual over all n,k,spin=   95.787E-23; max=  99.536E-20
 reduced coordinates (array xred) for   32 atoms
       0.432041037628      0.406018288141      0.429005360220
       0.567958962349      0.593981711860      0.570994639780
       0.932041037628      0.593981711860      0.570994639780
       0.067958962349      0.406018288141      0.429005360220
       0.067958962349      0.906018288141      0.570994639780
       0.932041037628      0.093981711860      0.429005360220
       0.567958962349      0.093981711860      0.429005360220
       0.432041037628      0.906018288141      0.570994639780
       0.438125475968      0.417111109040      0.485434888820
       0.561874524009      0.582888890960      0.514565111180
       0.938125475968      0.582888890960      0.514565111180
       0.061874524009      0.417111109040      0.485434888820
       0.061874524009      0.917111109040      0.514565111180
       0.938125475968      0.082888890960      0.485434888820
       0.561874524009      0.082888890960      0.485434888820
       0.438125475968      0.917111109040      0.514565111180
       0.436050685098      0.412994418489      0.543782422130
       0.563949314879      0.587005581511      0.456217577870
       0.936050685098      0.587005581511      0.456217577870
       0.063949314879      0.412994418489      0.543782422130
       0.063949314879      0.912994418489      0.456217577870
       0.936050685098      0.087005581511      0.543782422130
       0.563949314879      0.087005581511      0.543782422130
       0.436050685098      0.912994418489      0.456217577870
      -0.000631219948      0.993620785180      0.400241114920
       1.000631219925      0.006379214820      0.599758885080
       0.499368780052      0.006379214820      0.599758885080
       0.500631219925      0.993620785180      0.400241114920
       0.500631219925      0.493620785180      0.599758885080
       0.499368780052      0.506379214820      0.400241114920
       1.000631219925      0.506379214820      0.400241114920
      -0.000631219948      0.493620785180      0.599758885080
 
 cartesian coordinates (angstrom) at end:
    1      1.88027225738354     1.84438139001184    18.44723048944123
    2      2.47179639716438     2.69822529516652    24.55276951051503
    3      4.05630658470733     2.69822529516652    24.55276951051503
    4      0.29576206984059     1.84438139001184    18.44723048944123
    5      0.29576206984059     4.11568473260034    24.55276951051503
    6      4.05630658470733     0.42692195257802    18.44723048944123
    7      2.47179639716438     0.42692195257802    18.44723048944123
    8      1.88027225738354     4.11568473260034    24.55276951051503
    9      1.90675215076202     1.89477171238851    20.87370021923876
   10      2.44531650378591     2.64783497278985    22.12629978071749
   11      4.08278647808581     2.64783497278985    22.12629978071749
   12      0.26928217646211     1.89477171238851    20.87370021923876
   13      0.26928217646211     4.16607505497701    22.12629978071749
   14      4.08278647808581     0.37653163020135    20.87370021923876
   15      2.44531650378591     0.37653163020135    20.87370021923876
   16      1.90675215076202     4.16607505497701    22.12629978071749
   17      1.89772251845174     1.87607120636960    23.38264415156621
   18      2.45434613609618     2.66653547880876    19.61735584839004
   19      4.07375684577553     2.66653547880876    19.61735584839004
   20      0.27831180877239     1.87607120636960    23.38264415156621
   21      0.27831180877239     4.14737454895810    19.61735584839004
   22      4.07375684577553     0.39523213622026    23.38264415156621
   23      2.45434613609618     0.39523213622026    23.38264415156621
   24      1.89772251845174     4.14737454895810    19.61735584839004
   25     -0.00274711254944     4.51362842128949    17.21036794154249
   26      4.35481576709737     0.02897826388887    25.78963205841377
   27      2.17328721477435     0.02897826388887    25.78963205841377
   28      2.17878143977357     4.51362842128949    17.21036794154249
   29      2.17878143977357     2.24232507870099    25.78963205841377
   30      2.17328721477435     2.30028160647737    17.21036794154249
   31      4.35481576709737     2.30028160647737    17.21036794154249
   32     -0.00274711254944     2.24232507870099    25.78963205841377
 length scales=  8.224217868800  8.584282564400 81.258223714000 bohr
              =  4.352068654648  4.542606685177 42.999999999956 angstroms
 prteigrs : about to open file 3F-2110_gw_o_DS2_EIG
 Eigenvalues (hartree) for nkpt=  16  k points:
 kpt#   1, nband=  1752, wtk=  0.02778, kpt=  0.0000  0.0000  0.0000 (reduced coord)
  -1.16274   -1.16274   -1.11639   -1.11622   -1.10594   -1.10586   -1.06879   -1.06877
  -0.91773   -0.86676   -0.78529   -0.74799   -0.73882   -0.70409   -0.70216   -0.69581
  -0.67311   -0.67295   -0.63724   -0.63657   -0.62663   -0.60872   -0.58787   -0.58261
  -0.56481   -0.54636   -0.53746   -0.53701   -0.53105   -0.51346   -0.50845   -0.50352
  -0.49940   -0.49896   -0.49016   -0.47597   -0.45644   -0.45413   -0.44497   -0.44006
  -0.43981   -0.43433   -0.42860   -0.41896   -0.41018   -0.40587   -0.39928   -0.39508
  -0.39282   -0.38217   -0.37926   -0.34856   -0.34776   -0.33825   -0.32702   -0.32082
  -0.31534   -0.31380   -0.30837   -0.30422   -0.27509   -0.27479   -0.26572   -0.26468
  -0.25690   -0.25625   -0.25541   -0.25248   -0.24491   -0.24111   -0.23821   -0.21234
  -0.20686   -0.19315   -0.18161   -0.17880   -0.01536   -0.00827    0.00251    0.02868
   0.02950    0.03199    0.05210    0.05748    0.06663    0.08210    0.08549    0.12800
   0.13746    0.14377    0.14988    0.15254    0.18159    0.18183    0.18781    0.19035
   0.19604    0.21636    0.21684    0.21879    0.22347    0.23395    0.24215    0.24872
   0.25286    0.26740    0.26853    0.27537    0.28360    0.28674    0.28774    0.28879
   0.29454    0.30558    0.30806    0.33869    0.34408    0.35637    0.35831    0.36252
   0.36320    0.36788    0.38149    0.38424    0.38915    0.41457    0.41488    0.41621
   0.41987    0.42465    0.43127    0.43540    0.44592    0.44967    0.44978    0.45158
   0.45340    0.45888    0.46296    0.46498    0.46925    0.47710    0.47883    0.47954
   0.48276    0.48730    0.49195    0.50220    0.51023    0.51277    0.51667    0.52577
   0.53034    0.53258    0.53551    0.55111    0.55169    0.56461    0.57837    0.58034
   0.59296    0.59716    0.60002    0.60321    0.63101    0.63894    0.66526    0.66945
   0.67394    0.68693    0.69214    0.70165    0.72376    0.73289    0.73525    0.73837
   0.73867    0.75602    0.76104    0.76666    0.77670    0.78949    0.79129    0.79800
   0.80003    0.81168    0.81614    0.81683    0.81701    0.81788    0.82817    0.83677
   0.83816    0.85205    0.85522    0.85927    0.87078    0.87526    0.87878    0.89412
   0.90762    0.91223    0.93836    0.95748    0.97275    0.97881    0.99582    1.00211
   1.00400    1.01089    1.01835    1.02978    1.05024    1.06097    1.06211    1.06232
   1.06521    1.07459    1.08262    1.09097    1.09139    1.10865    1.11968    1.12585
   1.12622    1.12811    1.12822    1.12828    1.12880    1.13271    1.14798    1.15317
   1.15798    1.15991    1.16517    1.16612    1.17084    1.18293    1.18715    1.20169
   1.20495    1.20939    1.21268    1.22112    1.22292    1.22866    1.22947    1.23463
   1.24307    1.24368    1.24795    1.24810    1.25035    1.25984    1.26710    1.26892
   1.26968    1.28094    1.28953    1.29177    1.30517    1.30949    1.31503    1.32391
   1.32506    1.33332    1.33494    1.35998    1.36149    1.36847    1.37620    1.38285
   1.38500    1.39197    1.39544    1.39834    1.39890    1.40006    1.40206    1.41678
   1.42034    1.43081    1.43172    1.43550    1.43606    1.43635    1.44749    1.44973
   1.45079    1.45226    1.46029    1.46117    1.46532    1.46636    1.47440    1.47754
   1.47978    1.47987    1.48612    1.48771    1.49922    1.50031    1.50671    1.50828
   1.50836    1.51715    1.51918    1.52149    1.52152    1.52591    1.52717    1.53350
   1.53392    1.53433    1.53988    1.54682    1.54691    1.55189    1.55295    1.55977
   1.57211    1.57258    1.57475    1.57774    1.57951    1.58354    1.58944    1.59300
   1.60405    1.61520    1.62139    1.62531    1.62909    1.63069    1.63204    1.63387
   1.63619    1.63940    1.65913    1.66135    1.66422    1.66758    1.66923    1.67130
   1.67180    1.67538    1.68592    1.68620    1.68675    1.68736    1.69213    1.69276
   1.69460    1.69808    1.70395    1.70543    1.71212    1.71242    1.71478    1.72112
   1.72350    1.72434    1.72788    1.72872    1.72971    1.73173    1.73361    1.73586
   1.73607    1.73638    1.73646    1.73771    1.74199    1.74259    1.74508    1.74808
   1.75145    1.75274    1.75341    1.75716    1.75754    1.75791    1.75954    1.76295
   1.76336    1.76440    1.76468    1.76569    1.76735    1.76750    1.77489    1.77492
   1.77522    1.77830    1.78151    1.78310    1.78349    1.78582    1.78886    1.79130
   1.79217    1.79411    1.79534    1.79696    1.80053    1.80135    1.80716    1.80747
   1.81380    1.81495    1.81569    1.82101    1.82890    1.83232    1.83401    1.83477
   1.83522    1.83631    1.84636    1.84747    1.85659    1.85687    1.85828    1.85842
   1.86239    1.86846    1.87208    1.87282    1.87315    1.87373    1.87601    1.88247
   1.88279    1.88487    1.88633    1.88918    1.89129    1.89337    1.89356    1.90260
   1.90363    1.91080    1.91585    1.91643    1.91862    1.92024    1.92138    1.92420
   1.92640    1.92679    1.92805    1.93392    1.94020    1.94076    1.94109    1.94313
   1.95087    1.95116    1.95272    1.95394    1.96147    1.96523    1.96603    1.96762
   1.97150    1.97900    1.97924    1.98036    1.98490    1.98512    1.99259    1.99728
   2.00094    2.00205    2.00354    2.00358    2.00368    2.00414    2.00929    2.01051
   2.01150    2.01200    2.01227    2.01296    2.01581    2.02050    2.02096    2.02110
   2.02129    2.02179    2.02220    2.02450    2.02499    2.02765    2.02773    2.02864
   2.03005    2.03220    2.03420    2.03526    2.03691    2.04070    2.04155    2.04169
   2.04387    2.04419    2.04447    2.04692    2.04726    2.05120    2.05156    2.05470
   2.05880    2.05901    2.05925    2.05944    2.06488    2.06500    2.06596    2.06722
   2.06934    2.06951    2.06997    2.07453    2.07777    2.07967    2.08120    2.08296
   2.08383    2.08624    2.08785    2.08835    2.08845    2.08896    2.09485    2.09810
   2.09860    2.09920    2.10026    2.10174    2.10758    2.10828    2.10926    2.11014
   2.11184    2.11198    2.11715    2.11724    2.11860    2.12581    2.12864    2.13038
   2.13136    2.13882    2.14003    2.14171    2.14270    2.14333    2.14394    2.14582
   2.15213    2.15551    2.15584    2.15766    2.16056    2.16271    2.16642    2.16670
   2.16811    2.17587    2.17646    2.17965    2.18283    2.18733    2.19080    2.19172
   2.19379    2.19747    2.19772    2.19813    2.20541    2.20605    2.21362    2.21574
   2.21946    2.22000    2.22242    2.22286    2.22538    2.22848    2.23134    2.23205
   2.23618    2.23713    2.23828    2.23938    2.24030    2.24850    2.24925    2.25088
   2.25463    2.25491    2.25491    2.25636    2.26411    2.26561    2.26578    2.26863
   2.27486    2.27754    2.27975    2.28135    2.28173    2.28285    2.28829    2.29500
   2.29532    2.30166    2.30582    2.30813    2.31066    2.31177    2.31962    2.32006
   2.32074    2.32118    2.32398    2.32418    2.32606    2.32684    2.32727    2.33221
   2.33313    2.33435    2.33718    2.34128    2.34899    2.35070    2.35093    2.35726
   2.35790    2.35939    2.36301    2.36617    2.36972    2.37222    2.37524    2.37902
   2.38231    2.38427    2.39239    2.39473    2.39516    2.39638    2.39668    2.39903
   2.40435    2.40676    2.40879    2.41088    2.41166    2.41382    2.41829    2.42045
   2.42164    2.42543    2.42599    2.42633    2.42883    2.43476    2.43524    2.43770
   2.44162    2.44374    2.44592    2.44671    2.45517    2.45843    2.46200    2.46312
   2.46973    2.46994    2.47644    2.47728    2.48146    2.48299    2.48324    2.49227
   2.49307    2.49844    2.49996    2.50053    2.50423    2.50505    2.50677    2.50939
   2.51090    2.51090    2.51413    2.52000    2.52442    2.52884    2.52970    2.52998
   2.53231    2.53238    2.53342    2.53712    2.53968    2.54029    2.54131    2.54137
   2.54298    2.54320    2.54418    2.54444    2.54498    2.54699    2.54958    2.55007
   2.55391    2.55741    2.55975    2.56070    2.56338    2.56359    2.56562    2.56803
   2.56877    2.56913    2.57293    2.57359    2.57691    2.57939    2.58003    2.58678
   2.58685    2.58744    2.59299    2.59340    2.59345    2.59772    2.59815    2.60213
   2.60239    2.60274    2.60278    2.60715    2.60897    2.61224    2.61248    2.62023
   2.62134    2.62171    2.62398    2.62538    2.62680    2.62773    2.62829    2.62919
   2.63204    2.63271    2.63439    2.63456    2.63479    2.63488    2.63627    2.63839
   2.64043    2.64172    2.64487    2.64510    2.64687    2.64752    2.64813    2.64925
   2.65054    2.65260    2.65306    2.65691    2.65813    2.65851    2.66107    2.66141
   2.66432    2.66481    2.67307    2.67355    2.67722    2.68013    2.68100    2.68229
   2.68259    2.68321    2.68506    2.68690    2.68936    2.68940    2.68978    2.69512
   2.69537    2.69582    2.70012    2.70062    2.70332    2.70443    2.70604    2.70689
   2.70765    2.71035    2.71464    2.71859    2.71860    2.71886    2.71895    2.72221
   2.72228    2.72259    2.72419    2.73054    2.73176    2.73227    2.73428    2.73665
   2.73704    2.73981    2.74209    2.74378    2.74941    2.75230    2.75334    2.75436
   2.75541    2.75702    2.76121    2.76147    2.76316    2.76448    2.76451    2.77000
   2.77096    2.77388    2.77708    2.77918    2.78423    2.78567    2.78606    2.78607
   2.79102    2.79328    2.79582    2.79592    2.79880    2.79956    2.80694    2.80756
   2.80927    2.81094    2.81202    2.81409    2.81498    2.81681    2.81846    2.81872
   2.81942    2.82408    2.82419    2.82433    2.82453    2.82710    2.82817    2.82830
   2.82934    2.82978    2.82984    2.83096    2.83164    2.83229    2.83257    2.83517
   2.83640    2.83725    2.83752    2.83768    2.83807    2.83810    2.83888    2.83897
   2.84190    2.84397    2.84439    2.84500    2.84738    2.84920    2.85032    2.85119
   2.85397    2.85463    2.85556    2.85582    2.85670    2.85750    2.85921    2.86126
   2.86184    2.86421    2.86467    2.86690    2.86742    2.87304    2.87342    2.87392
   2.87406    2.87699    2.87780    2.87837    2.87912    2.88372    2.88461    2.88507
   2.88527    2.89155    2.89345    2.89386    2.89388    2.89552    2.89597    2.89603
   2.89607    2.89654    2.89725    2.89836    2.89894    2.89953    2.89991    2.90026
   2.90263    2.90441    2.90446    2.90688    2.90757    2.90771    2.90788    2.90796
   2.90814    2.90939    2.91354    2.91502    2.91545    2.91628    2.91718    2.91954
   2.91955    2.92236    2.92296    2.92344    2.92388    2.92479    2.92784    2.92981
   2.93027    2.93108    2.93111    2.93190    2.93224    2.93232    2.93242    2.93435
   2.93530    2.93561    2.93576    2.93743    2.93993    2.94412    2.94571    2.94655
   2.94739    2.94816    2.95080    2.95097    2.95332    2.95379    2.95517    2.95630
   2.95662    2.95944    2.95949    2.96039    2.96116    2.96151    2.96187    2.96338
   2.96543    2.96716    2.96728    2.97014    2.97016    2.97061    2.97171    2.97256
   2.97503    2.97568    2.97759    2.97851    2.98146    2.98336    2.98431    2.98754
   2.98764    2.98780    2.98784    2.99050    2.99210    2.99337    2.99414    2.99470
   2.99502    2.99762    2.99821    2.99969    3.00278    3.00364    3.00547    3.00917
   3.01107    3.01107    3.01130    3.01454    3.01526    3.01628    3.01667    3.01684
   3.02226    3.02269    3.02316    3.02376    3.02426    3.02649    3.02963    3.03099
   3.03173    3.03520    3.03715    3.03716    3.03734    3.03860    3.04007    3.04665
   3.04912    3.05052    3.05145    3.05202    3.05204    3.05230    3.05535    3.05803
   3.06140    3.06158    3.06356    3.06465    3.06626    3.06761    3.06775    3.06965
   3.07071    3.07091    3.07111    3.07281    3.07385    3.07416    3.07779    3.07902
   3.07937    3.07964    3.08278    3.08330    3.08571    3.08600    3.08679    3.08890
   3.09426    3.09560    3.09628    3.09888    3.09997    3.10412    3.10443    3.10527
   3.10542    3.11108    3.11232    3.11254    3.11388    3.11569    3.11581    3.11613
   3.11738    3.12038    3.12110    3.12116    3.12428    3.12819    3.12872    3.12915
   3.12930    3.13114    3.13257    3.13274    3.13356    3.13443    3.13470    3.13732
   3.13804    3.14158    3.14179    3.14289    3.14749    3.14842    3.15007    3.15234
   3.15495    3.15900    3.16211    3.16333    3.16525    3.17044    3.17360    3.17750
   3.18053    3.18142    3.18428    3.18473    3.18549    3.18742    3.18793    3.18937
   3.19278    3.19284    3.19732    3.19818    3.19866    3.19906    3.20156    3.20249
   3.20257    3.20333    3.20599    3.20682    3.20779    3.21138    3.21145    3.21611
   3.21649    3.21715    3.22023    3.22026    3.22449    3.22454    3.22459    3.22561
   3.22567    3.22845    3.23262    3.23579    3.23892    3.23928    3.23932    3.23981
   3.24264    3.24321    3.24348    3.24472    3.24488    3.24504    3.24544    3.24574
   3.25234    3.25717    3.25759    3.25848    3.26148    3.26201    3.26304    3.26664
   3.26852    3.27009    3.27016    3.27244    3.27401    3.27878    3.28143    3.28422
[...]
   3.73898    3.73915    3.73916    3.73967    3.73994    3.74237    3.74414    3.74526
   3.74692    3.74879    3.75543    3.75677    3.75697    3.75717    3.75927    3.75928
   3.75988    3.76177    3.76359    3.76525    3.76681    3.76833    3.76835    3.76890
   3.77477    3.77502    3.77509    3.77647    3.77990    3.78000    3.78013    3.78247
   3.78515    3.78726    3.78860    3.79173    3.79287    3.79332    3.79409    3.79812
   3.79858    3.79894    3.79967    3.80457    3.80708    3.80769    3.80838    3.80843
   3.81093    3.81116    3.81138    3.81161    3.81316    3.81707    3.81885    3.81997
   3.82139    3.82207    3.82319    3.82349    3.82421    3.82554    3.82718    3.82842
   3.83291    3.83301    3.83306    3.83593    3.83677    3.83836    3.84044    3.84356
   3.84479    3.84687    3.84825    3.85145    3.85256    3.85263    3.85393    3.85804
   3.85884    3.85911    3.86179    3.86256    3.86433    3.86448    3.86770    3.86807
   3.86935    3.87063    3.87135    3.87166    3.87208    3.87367    3.87544    3.87592
   3.87645    3.87687    3.88144    3.88185    3.88242    3.88425    3.88508    3.88612
   3.88642    3.88646    3.88884    3.89170    3.89311    3.89464    3.89503    3.89583
   3.89842    3.89883    3.89963    3.90005    3.90399    3.90960    3.91043    3.91143
   3.91311    3.91367    3.91427    3.91479    3.91522    3.91662    3.91960    3.92062
   3.92140    3.92253    3.92271    3.92335    3.92383    3.92522    3.92718    3.92929
   3.93085    3.93279    3.93490    3.93964    3.94022    3.94103    3.94152    3.94216
   3.94293    3.94378    3.94430    3.94435    3.94581    3.94710    3.94800    3.94936
   3.95283    3.95389    3.95448    3.95473    3.95825    3.96137    3.96323    3.96520
   3.96554    3.96622    3.96809    3.97154    3.97408    3.97809    3.97877    3.98085
   3.98132    3.98167    3.98269    3.98454    3.98485    3.98878    3.99054    3.99306
   3.99460    3.99466    3.99529    3.99668    3.99994    4.00012    4.00163    4.00237
   4.00312    4.00449    4.00596    4.00605    4.01050    4.01072    4.01180    4.01393
   4.01548    4.01716    4.01998    4.02129    4.02322    4.02607    4.02631    4.02900
   4.02945    4.03008    4.03215    4.03459    4.03551    4.03706    4.03851    4.04373
   4.04472    4.04488    4.04563    4.04621    4.04752    4.04806    4.04985    4.05157
   4.05398    4.05511    4.05729    4.05825    4.05879    4.05936    4.06265    4.06450
   4.06632    4.06779    4.06786    4.07078    4.07215    4.07331    4.07647    4.07816
   4.07844    4.08091    4.08407    4.08407    4.08617    4.08701    4.08768    4.08822
   4.08886    4.08907    4.09037    4.09065    4.09141    4.09178    4.09281    4.09386
   4.09387    4.09632    4.09743    4.09920    4.10030    4.10068    4.10079    4.10124
   4.10483    4.10732    4.10753    4.10757    4.11125    4.11231    4.11299    4.11355
   4.11371    4.11381    4.11476    4.11685    4.11798    4.12137    4.12637    4.12870
   4.12963    4.13056    4.13298    4.13355    4.13388    4.13585    4.13667    4.13881
   4.14238    4.14362    4.14483    4.14755    4.14804    4.14958    4.15092    4.15242
   4.15437    4.15581    4.16003    4.16111    4.16296    4.16426    4.16439    4.16583
 prteigrs : prtvol=0 or 1, do not print more k-points.
 
 
== END DATASET(S) ==============================================================
================================================================================
  
 -outvars: echo values of variables after computation  --------
-          iomode           1
            acell      8.2242178688E+00  8.5842825644E+00  8.1258223714E+01 Bohr
              amu      1.20110000E+01  1.89984032E+01
          chkprim           0
     densfor_pred           6
           diemac      1.20000000E+01
             ecut      5.00000000E+01 Hartree
-          fftalg         512
           getden           1
      gw_icutcoul           2
             iscf          -2
           istwfk        1    0    0    1    0    0    0    0    0    0
                         0    0    1    0    0    1
              ixc     -208012
           jdtset        2
              kpt      0.00000000E+00  0.00000000E+00  0.00000000E+00
                       1.66666667E-01  0.00000000E+00  0.00000000E+00
                       3.33333333E-01  0.00000000E+00  0.00000000E+00
                       5.00000000E-01  0.00000000E+00  0.00000000E+00
                       0.00000000E+00  1.66666667E-01  0.00000000E+00
                       1.66666667E-01  1.66666667E-01  0.00000000E+00
                       3.33333333E-01  1.66666667E-01  0.00000000E+00
                       5.00000000E-01  1.66666667E-01  0.00000000E+00
                       0.00000000E+00  3.33333333E-01  0.00000000E+00
                       1.66666667E-01  3.33333333E-01  0.00000000E+00
                       3.33333333E-01  3.33333333E-01  0.00000000E+00
                       5.00000000E-01  3.33333333E-01  0.00000000E+00
                       0.00000000E+00  5.00000000E-01  0.00000000E+00
                       1.66666667E-01  5.00000000E-01  0.00000000E+00
                       3.33333333E-01  5.00000000E-01  0.00000000E+00
                       5.00000000E-01  5.00000000E-01  0.00000000E+00
         kptrlatt        6    0    0      0    6    0      0    0    1
          kptrlen      4.93453072E+01
P           mkmem           1
            natom          32
            nband        1752
           nbdbuf         219
           ndtset           1
            ngfft          54      60     540
             nkpt          16
-          npband           4
-        np_spkpt          16
            nstep         100
             nsym           8
           ntypat           2
           ortalg          -2
        paral_kgb           1
          prtkden           1
          spgroup          57
           symrel      1  0  0   0  1  0   0  0  1      -1  0  0   0 -1  0   0  0 -1
                      -1  0  0   0  1  0   0  0 -1       1  0  0   0 -1  0   0  0  1
                      -1  0  0   0 -1  0   0  0  1       1  0  0   0  1  0   0  0 -1
                       1  0  0   0 -1  0   0  0 -1      -1  0  0   0  1  0   0  0  1
            tnons      0.0000000  0.0000000  0.0000000    -0.0000000  0.0000000  0.0000000
                       0.5000000  0.5000000  0.0000000     0.5000000  0.5000000  0.0000000
                      -0.0000000  0.5000000  0.0000000     0.0000000  0.5000000  0.0000000
                       0.5000000  0.0000000  0.0000000     0.5000000  0.0000000  0.0000000
           tolsym      1.00000000E-04
           tolwfr      1.00000000E-18
            typat      1  1  1  1  1  1  1  1  1  1  1  1  1  1  1  1  1  1  1  1
                       1  1  1  1  2  2  2  2  2  2  2  2
          usekden           1
          vcutgeo      1.0000000  1.0000000  0.0000000
         wfoptalg         114
              wtk        0.02778    0.05556    0.05556    0.02778    0.05556    0.11111
                         0.11111    0.05556    0.05556    0.11111    0.11111    0.05556
                         0.02778    0.05556    0.05556    0.02778
           xangst      1.8802722574E+00  1.8443813900E+00  1.8447230489E+01
                       2.4717963972E+00  2.6982252952E+00  2.4552769511E+01
                       4.0563065847E+00  2.6982252952E+00  2.4552769511E+01
                       2.9576206984E-01  1.8443813900E+00  1.8447230489E+01
                       2.9576206984E-01  4.1156847326E+00  2.4552769511E+01
                       4.0563065847E+00  4.2692195258E-01  1.8447230489E+01
                       2.4717963972E+00  4.2692195258E-01  1.8447230489E+01
                       1.8802722574E+00  4.1156847326E+00  2.4552769511E+01
                       1.9067521508E+00  1.8947717124E+00  2.0873700219E+01
                       2.4453165038E+00  2.6478349728E+00  2.2126299781E+01
                       4.0827864781E+00  2.6478349728E+00  2.2126299781E+01
                       2.6928217646E-01  1.8947717124E+00  2.0873700219E+01
                       2.6928217646E-01  4.1660750550E+00  2.2126299781E+01
                       4.0827864781E+00  3.7653163020E-01  2.0873700219E+01
                       2.4453165038E+00  3.7653163020E-01  2.0873700219E+01
                       1.9067521508E+00  4.1660750550E+00  2.2126299781E+01
                       1.8977225185E+00  1.8760712064E+00  2.3382644152E+01
                       2.4543461361E+00  2.6665354788E+00  1.9617355848E+01
                       4.0737568458E+00  2.6665354788E+00  1.9617355848E+01
                       2.7831180877E-01  1.8760712064E+00  2.3382644152E+01
                       2.7831180877E-01  4.1473745490E+00  1.9617355848E+01
                       4.0737568458E+00  3.9523213622E-01  2.3382644152E+01
                       2.4543461361E+00  3.9523213622E-01  2.3382644152E+01
                       1.8977225185E+00  4.1473745490E+00  1.9617355848E+01
                      -2.7471125494E-03  4.5136284213E+00  1.7210367942E+01
                       4.3548157671E+00  2.8978263889E-02  2.5789632058E+01
                       2.1732872148E+00  2.8978263889E-02  2.5789632058E+01
                       2.1787814398E+00  4.5136284213E+00  1.7210367942E+01
                       2.1787814398E+00  2.2423250787E+00  2.5789632058E+01
                       2.1732872148E+00  2.3002816065E+00  1.7210367942E+01
                       4.3548157671E+00  2.3002816065E+00  1.7210367942E+01
                      -2.7471125494E-03  2.2423250787E+00  2.5789632058E+01
            xcart      3.5531996217E+00  3.4853757117E+00  3.4860213535E+01
                       4.6710182469E+00  5.0989068527E+00  4.6398010179E+01
                       7.6653085561E+00  5.0989068527E+00  4.6398010179E+01
                       5.5890931249E-01  3.4853757117E+00  3.4860213535E+01
                       5.5890931249E-01  7.7775169939E+00  4.6398010179E+01
                       7.6653085561E+00  8.0676557049E-01  3.4860213535E+01
                       4.6710182469E+00  8.0676557049E-01  3.4860213535E+01
                       3.5531996217E+00  7.7775169939E+00  4.6398010179E+01
                       3.6032393682E+00  3.5805996208E+00  3.9445576794E+01
                       4.6209785004E+00  5.0036829436E+00  4.1812646920E+01
                       7.7153483026E+00  5.0036829436E+00  4.1812646920E+01
                       5.0886956598E-01  3.5805996208E+00  3.9445576794E+01
                       5.0886956598E-01  7.8727409030E+00  4.1812646920E+01
                       7.7153483026E+00  7.1154166145E-01  3.9445576794E+01
                       4.6209785004E+00  7.1154166145E-01  3.9445576794E+01
                       3.6032393682E+00  7.8727409030E+00  4.1812646920E+01
                       3.5861758361E+00  3.5452607858E+00  4.4186793709E+01
                       4.6380420325E+00  5.0390217786E+00  3.7071430005E+01
                       7.6982847705E+00  5.0390217786E+00  3.7071430005E+01
                       5.2593309813E-01  3.5452607858E+00  4.4186793709E+01
                       5.2593309813E-01  7.8374020680E+00  3.7071430005E+01
                       7.6982847705E+00  7.4688049637E-01  4.4186793709E+01
                       4.6380420325E+00  7.4688049637E-01  4.4186793709E+01
                       3.5861758361E+00  7.8374020680E+00  3.7071430005E+01
                      -5.1912903747E-03  8.5295215818E+00  3.2522882056E+01
                       8.2294091590E+00  5.4760982556E-02  4.8735341658E+01
                       4.1069176440E+00  5.4760982556E-02  4.8735341658E+01
                       4.1173002246E+00  8.5295215818E+00  3.2522882056E+01
                       4.1173002246E+00  4.2373802996E+00  4.8735341658E+01
                       4.1069176440E+00  4.3469022648E+00  3.2522882056E+01
                       8.2294091590E+00  4.3469022648E+00  3.2522882056E+01
                      -5.1912903747E-03  4.2373802996E+00  4.8735341658E+01
             xred      4.3204103763E-01  4.0601828814E-01  4.2900536022E-01
                       5.6795896235E-01  5.9398171186E-01  5.7099463978E-01
                       9.3204103763E-01  5.9398171186E-01  5.7099463978E-01
                       6.7958962349E-02  4.0601828814E-01  4.2900536022E-01
                       6.7958962349E-02  9.0601828814E-01  5.7099463978E-01
                       9.3204103763E-01  9.3981711860E-02  4.2900536022E-01
                       5.6795896235E-01  9.3981711860E-02  4.2900536022E-01
                       4.3204103763E-01  9.0601828814E-01  5.7099463978E-01
                       4.3812547597E-01  4.1711110904E-01  4.8543488882E-01
                       5.6187452401E-01  5.8288889096E-01  5.1456511118E-01
                       9.3812547597E-01  5.8288889096E-01  5.1456511118E-01
                       6.1874524009E-02  4.1711110904E-01  4.8543488882E-01
                       6.1874524009E-02  9.1711110904E-01  5.1456511118E-01
                       9.3812547597E-01  8.2888890960E-02  4.8543488882E-01
                       5.6187452401E-01  8.2888890960E-02  4.8543488882E-01
                       4.3812547597E-01  9.1711110904E-01  5.1456511118E-01
                       4.3605068510E-01  4.1299441849E-01  5.4378242213E-01
                       5.6394931488E-01  5.8700558151E-01  4.5621757787E-01
                       9.3605068510E-01  5.8700558151E-01  4.5621757787E-01
                       6.3949314879E-02  4.1299441849E-01  5.4378242213E-01
                       6.3949314879E-02  9.1299441849E-01  4.5621757787E-01
                       9.3605068510E-01  8.7005581511E-02  5.4378242213E-01
                       5.6394931488E-01  8.7005581511E-02  5.4378242213E-01
                       4.3605068510E-01  9.1299441849E-01  4.5621757787E-01
                      -6.3121994790E-04  9.9362078518E-01  4.0024111492E-01
                       1.0006312199E+00  6.3792148203E-03  5.9975888508E-01
                       4.9936878005E-01  6.3792148203E-03  5.9975888508E-01
                       5.0063121993E-01  9.9362078518E-01  4.0024111492E-01
                       5.0063121993E-01  4.9362078518E-01  5.9975888508E-01
                       4.9936878005E-01  5.0637921482E-01  4.0024111492E-01
                       1.0006312199E+00  5.0637921482E-01  4.0024111492E-01
                      -6.3121994790E-04  4.9362078518E-01  5.9975888508E-01
            znucl        6.00000    9.00000
 
================================================================================


- Timing analysis has been suppressed with timopt=0



================================================================================

 Suggested references for the acknowledgment of ABINIT usage.

 The users of ABINIT have little formal obligations with respect to the ABINIT group
 (those specified in the GNU General Public License, http://www.gnu.org/copyleft/gpl.txt).
 However, it is common practice in the scientific literature,
 to acknowledge the efforts of people that have made the research possible.
 In this spirit, please find below suggested citations of work written by ABINIT developers,
 corresponding to implementations inside of ABINIT that you have used in the present run.
 Note also that it will be of great value to readers of publications presenting these results,
 to read papers enabling them to understand the theoretical formalism and details
 of the ABINIT implementation.
 For information on why they are suggested, see also https://docs.abinit.org/theory/acknowledgments.
-
- [1] Libxc: A library of exchange and correlation functionals for density functional theory.
- M.A.L. Marques, M.J.T. Oliveira, T. Burnus, Computer Physics Communications 183, 2227 (2012).
- Comment: to be cited when LibXC is used (negative value of ixc)
- Strong suggestion to cite this paper.
- DOI and bibtex: see https://docs.abinit.org/theory/bibliography/#marques2012
-
- [2] Large scale ab initio calculations based on three levels of parallelization
- F. Bottin, S. Leroux, A. Knyazev, G. Zerah, Comput. Mat. Science 42, 329, (2008).
- Comment: in case LOBPCG algorithm is used (wfoptalg=4/14/114).
- Strong suggestion to cite this paper in your publications.
- This paper is also available at http://www.arxiv.org/abs/0707.3405
- DOI and bibtex: see https://docs.abinit.org/theory/bibliography/#bottin2008
-
- [3] The Abinit project: Impact, environment and recent developments.
- Computer Phys. Comm. 248, 107042 (2020).
- X.Gonze, B. Amadon, G. Antonius, F.Arnardi, L.Baguet, J.-M.Beuken,
- J.Bieder, F.Bottin, J.Bouchet, E.Bousquet, N.Brouwer, F.Bruneval,
- G.Brunin, T.Cavignac, J.-B. Charraud, Wei Chen, M.Cote, S.Cottenier,
- J.Denier, G.Geneste, Ph.Ghosez, M.Giantomassi, Y.Gillet, O.Gingras,
- D.R.Hamann, G.Hautier, Xu He, N.Helbig, N.Holzwarth, Y.Jia, F.Jollet,
- W.Lafargue-Dit-Hauret, K.Lejaeghere, M.A.L.Marques, A.Martin, C.Martins,
- H.P.C. Miranda, F.Naccarato, K. Persson, G.Petretto, V.Planes, Y.Pouillon,
- S.Prokhorenko, F.Ricci, G.-M.Rignanese, A.H.Romero, M.M.Schmitt, M.Torrent,
- M.J.van Setten, B.Van Troeye, M.J.Verstraete, G.Zerah and J.W.Zwanzig
- Comment: the fifth generic paper describing the ABINIT project.
- Note that a version of this paper, that is not formatted for Computer Phys. Comm. 
- is available at https://www.abinit.org/sites/default/files/ABINIT20.pdf .
- The licence allows the authors to put it on the Web.
- DOI and bibtex: see https://docs.abinit.org/theory/bibliography/#gonze2020
-
- [4] ABINIT: Overview, and focus on selected capabilities
- J. Chem. Phys. 152, 124102 (2020).
- A. Romero, D.C. Allan, B. Amadon, G. Antonius, T. Applencourt, L.Baguet,
- J.Bieder, F.Bottin, J.Bouchet, E.Bousquet, F.Bruneval,
- G.Brunin, D.Caliste, M.Cote,
- J.Denier, C. Dreyer, Ph.Ghosez, M.Giantomassi, Y.Gillet, O.Gingras,
- D.R.Hamann, G.Hautier, F.Jollet, G. Jomard,
- A.Martin, 
- H.P.C. Miranda, F.Naccarato, G.Petretto, N.A. Pike, V.Planes,
- S.Prokhorenko, T. Rangel, F.Ricci, G.-M.Rignanese, M.Royo, M.Stengel, M.Torrent,
- M.J.van Setten, B.Van Troeye, M.J.Verstraete, J.Wiktor, J.W.Zwanziger, and X.Gonze.
- Comment: a global overview of ABINIT, with focus on selected capabilities .
- Note that a version of this paper, that is not formatted for J. Chem. Phys 
- is available at https://www.abinit.org/sites/default/files/ABINIT20_JPC.pdf .
- The licence allows the authors to put it on the Web.
- DOI and bibtex: see https://docs.abinit.org/theory/bibliography/#romero2020
-
- [5] Recent developments in the ABINIT software package.
- Computer Phys. Comm. 205, 106 (2016).
- X.Gonze, F.Jollet, F.Abreu Araujo, D.Adams, B.Amadon, T.Applencourt,
- C.Audouze, J.-M.Beuken, J.Bieder, A.Bokhanchuk, E.Bousquet, F.Bruneval
- D.Caliste, M.Cote, F.Dahm, F.Da Pieve, M.Delaveau, M.Di Gennaro,
- B.Dorado, C.Espejo, G.Geneste, L.Genovese, A.Gerossier, M.Giantomassi,
- Y.Gillet, D.R.Hamann, L.He, G.Jomard, J.Laflamme Janssen, S.Le Roux,
- A.Levitt, A.Lherbier, F.Liu, I.Lukacevic, A.Martin, C.Martins,
- M.J.T.Oliveira, S.Ponce, Y.Pouillon, T.Rangel, G.-M.Rignanese,
- A.H.Romero, B.Rousseau, O.Rubel, A.A.Shukri, M.Stankovski, M.Torrent,
- M.J.Van Setten, B.Van Troeye, M.J.Verstraete, D.Waroquier, J.Wiktor,
- B.Xu, A.Zhou, J.W.Zwanziger.
- Comment: the fourth generic paper describing the ABINIT project.
- Note that a version of this paper, that is not formatted for Computer Phys. Comm. 
- is available at https://www.abinit.org/sites/default/files/ABINIT16.pdf .
- The licence allows the authors to put it on the Web.
- DOI and bibtex: see https://docs.abinit.org/theory/bibliography/#gonze2016
-
- Proc.   0 individual time (sec): cpu=      18118.5  wall=      18196.8
 
================================================================================
 
 Calculation completed.
.Delivered   0 WARNINGs and   2 COMMENTs to log file.
+Overall time at end (sec) : cpu=    1158133.8  wall=    1164584.8
