
.Version 9.7.2 of ABINIT 
.(MPI version, prepared for a x86_64_linux_intel2021.2 computer) 

.Copyright (C) 1998-2021 ABINIT group . 
 ABINIT comes with ABSOLUTELY NO WARRANTY.
 It is free software, and you are welcome to redistribute it
 under certain conditions (GNU General Public License,
 see ~abinit/COPYING or http://www.gnu.org/copyleft/gpl.txt).

 ABINIT is a project of the Universite Catholique de Louvain,
 Corning Inc. and other collaborators, see ~abinit/doc/developers/contributors.txt .
 Please read https://docs.abinit.org/theory/acknowledgments for suggested
 acknowledgments of the ABINIT effort.
 For more information, see https://www.abinit.org .

.Starting date : Wed 23 Feb 2022.
- ( at 23h12 )
  
- input  file    -> ./3F-2110_gw.abi
- output file    -> 3F-2110_gw.abo
- root for input  files -> 3F-2110_gw_i
- root for output files -> 3F-2110_gw_o
 
 
 DATASET    3 : space group Pb c m (# 57); Bravais oP (primitive ortho.)
================================================================================
 Values of the parameters that define the memory need for DATASET  3.
     intxc =       0    ionmov =       0      iscf =       7    lmnmax =       1
     lnmax =       1     mgfft =     540  mpssoang =       2    mqgrid =   25866
     natom =      32  nloc_mem =       1    nspden =       1   nspinor =       1
    nsppol =       1      nsym =       8    n1xccc =       0    ntypat =       2
    occopt =       1   xclevel =       2
-    mband =         876        mffmem =           1         mkmem =           1
       mpw =       97062          nfft =     1749600          nkpt =          16
================================================================================
P This job should need less than                    1880.582 Mbytes of memory.
  Rough estimation (10% accuracy) of disk space for files :
_ WF disk file :  20758.379 Mbytes ; DEN or POT disk file :     13.350 Mbytes.
================================================================================
 
 
 DATASET    4 : space group Pb c m (# 57); Bravais oP (primitive ortho.)
================================================================================
 Values of the parameters that define the memory need for DATASET  4.
     intxc =       0    ionmov =       0      iscf =       7    lmnmax =       1
     lnmax =       1     mgfft =     540  mpssoang =       2    mqgrid =   25866
     natom =      32  nloc_mem =       1    nspden =       1   nspinor =       1
    nsppol =       1      nsym =       8    n1xccc =       0    ntypat =       2
    occopt =       1   xclevel =       2
-    mband =        1314        mffmem =           1         mkmem =           1
       mpw =       97062          nfft =     1749600          nkpt =          16
================================================================================
P This job should need less than                    2557.488 Mbytes of memory.
  Rough estimation (10% accuracy) of disk space for files :
_ WF disk file :  31137.567 Mbytes ; DEN or POT disk file :     13.350 Mbytes.
================================================================================
 
--------------------------------------------------------------------------------
------------- Echo of variables that govern the present computation ------------
--------------------------------------------------------------------------------
-
- outvars: echo of selected default values                                      
-   iomode0 =  0 , fftalg0 =512 , wfoptalg0 =  0
-
- outvars: echo of global parameters not present in the input file              
-  max_nthreads =    0
-
 -outvars: echo values of preprocessed input variables --------
            acell      8.2242178688E+00  8.5842825644E+00  8.1258223714E+01 Bohr
              amu      1.20110000E+01  1.89984032E+01
             bdgw4         74      77
          chkprim           0
           diemac      1.20000000E+01
             ecut      5.00000000E+01 Hartree
          ecuteps3     5.00000000E+00 Hartree
          ecuteps4     0.00000000E+00 Hartree
         ecutsigx3     0.00000000E+00 Hartree
         ecutsigx4     2.50000000E+01 Hartree
          ecutwfn      5.00000000E+01 Hartree
-          fftalg         512
           getscr3          0
           getscr4          3
           getwfk           2
      gw_icutcoul           2
          inclvkb           0
           istwfk        1    0    0    1    0    0    0    0    0    0
                         0    0    1    0    0    1
              ixc     -208012
           jdtset        3    4
              kpt      0.00000000E+00  0.00000000E+00  0.00000000E+00
                       1.66666667E-01  0.00000000E+00  0.00000000E+00
                       3.33333333E-01  0.00000000E+00  0.00000000E+00
                       5.00000000E-01  0.00000000E+00  0.00000000E+00
                       0.00000000E+00  1.66666667E-01  0.00000000E+00
                       1.66666667E-01  1.66666667E-01  0.00000000E+00
                       3.33333333E-01  1.66666667E-01  0.00000000E+00
                       5.00000000E-01  1.66666667E-01  0.00000000E+00
                       0.00000000E+00  3.33333333E-01  0.00000000E+00
                       1.66666667E-01  3.33333333E-01  0.00000000E+00
                       3.33333333E-01  3.33333333E-01  0.00000000E+00
                       5.00000000E-01  3.33333333E-01  0.00000000E+00
                       0.00000000E+00  5.00000000E-01  0.00000000E+00
                       1.66666667E-01  5.00000000E-01  0.00000000E+00
                       3.33333333E-01  5.00000000E-01  0.00000000E+00
                       5.00000000E-01  5.00000000E-01  0.00000000E+00
            kptgw4     0.00000000E+00  0.00000000E+00  0.00000000E+00
         kptrlatt        6    0    0      0    6    0      0    0    1
          kptrlen      4.93453072E+01
P           mkmem           1
            natom          32
            nband3        876
            nband4       1314
           ndtset           2
            ngfft          54      60     540
             nkpt          16
           nkptgw3          0
           nkptgw4          1
           npweps3       3021
           npweps4          0
          npwsigx3          0
          npwsigx4      34343
           npwwfn       96783
            nstep         100
             nsym           8
           ntypat           2
              occ3     2.000000  2.000000  2.000000  2.000000  2.000000  2.000000
                       2.000000  2.000000  2.000000  2.000000  2.000000  2.000000
                       2.000000  2.000000  2.000000  2.000000  2.000000  2.000000
                       2.000000  2.000000  2.000000  2.000000  2.000000  2.000000
                       2.000000  2.000000  2.000000  2.000000  2.000000  2.000000
                       2.000000  2.000000  2.000000  2.000000  2.000000  2.000000
                       2.000000  2.000000  2.000000  2.000000  2.000000  2.000000
                       2.000000  2.000000  2.000000  2.000000  2.000000  2.000000
                       2.000000  2.000000  2.000000  2.000000  2.000000  2.000000
                       2.000000  2.000000  2.000000  2.000000  2.000000  2.000000
                       2.000000  2.000000  2.000000  2.000000  2.000000  2.000000
                       2.000000  2.000000  2.000000  2.000000  2.000000  2.000000
                       2.000000  2.000000  2.000000  2.000000  0.000000  0.000000
                       0.000000  0.000000  0.000000  0.000000  0.000000  0.000000
                       0.000000  0.000000  0.000000  0.000000  0.000000  0.000000
                       0.000000  0.000000  0.000000  0.000000  0.000000  0.000000
                       0.000000  0.000000  0.000000  0.000000  0.000000  0.000000
                       0.000000  0.000000  0.000000  0.000000  0.000000  0.000000
                       0.000000  0.000000  0.000000  0.000000  0.000000  0.000000
                       0.000000  0.000000  0.000000  0.000000  0.000000  0.000000
                       0.000000  0.000000  0.000000  0.000000  0.000000  0.000000
                       0.000000  0.000000  0.000000  0.000000  0.000000  0.000000
                       0.000000  0.000000  0.000000  0.000000  0.000000  0.000000
                       0.000000  0.000000  0.000000  0.000000  0.000000  0.000000
                       0.000000  0.000000  0.000000  0.000000  0.000000  0.000000
                       0.000000  0.000000  0.000000  0.000000  0.000000  0.000000
                       0.000000  0.000000  0.000000  0.000000  0.000000  0.000000
                       0.000000  0.000000  0.000000  0.000000  0.000000  0.000000
                       0.000000  0.000000  0.000000  0.000000  0.000000  0.000000
                       0.000000  0.000000  0.000000  0.000000  0.000000  0.000000
                       0.000000  0.000000  0.000000  0.000000  0.000000  0.000000
                       0.000000  0.000000  0.000000  0.000000  0.000000  0.000000
                       0.000000  0.000000  0.000000  0.000000  0.000000  0.000000
                       0.000000  0.000000  0.000000  0.000000  0.000000  0.000000
                       0.000000  0.000000  0.000000  0.000000  0.000000  0.000000
                       0.000000  0.000000  0.000000  0.000000  0.000000  0.000000
                       0.000000  0.000000  0.000000  0.000000  0.000000  0.000000
                       0.000000  0.000000  0.000000  0.000000  0.000000  0.000000
                       0.000000  0.000000  0.000000  0.000000  0.000000  0.000000
                       0.000000  0.000000  0.000000  0.000000  0.000000  0.000000
                       0.000000  0.000000  0.000000  0.000000  0.000000  0.000000
                       0.000000  0.000000  0.000000  0.000000  0.000000  0.000000
                       0.000000  0.000000  0.000000  0.000000  0.000000  0.000000
                       0.000000  0.000000  0.000000  0.000000  0.000000  0.000000
                       0.000000  0.000000  0.000000  0.000000  0.000000  0.000000
                       0.000000  0.000000  0.000000  0.000000  0.000000  0.000000
                       0.000000  0.000000  0.000000  0.000000  0.000000  0.000000
                       0.000000  0.000000  0.000000  0.000000  0.000000  0.000000
                       0.000000  0.000000  0.000000  0.000000  0.000000  0.000000
                       0.000000  0.000000  0.000000  0.000000  0.000000  0.000000
                       0.000000  0.000000  0.000000  0.000000  0.000000  0.000000
                       0.000000  0.000000  0.000000  0.000000  0.000000  0.000000
                       0.000000  0.000000  0.000000  0.000000  0.000000  0.000000
                       0.000000  0.000000  0.000000  0.000000  0.000000  0.000000
                       0.000000  0.000000  0.000000  0.000000  0.000000  0.000000
                       0.000000  0.000000  0.000000  0.000000  0.000000  0.000000
                       0.000000  0.000000  0.000000  0.000000  0.000000  0.000000
                       0.000000  0.000000  0.000000  0.000000  0.000000  0.000000
                       0.000000  0.000000  0.000000  0.000000  0.000000  0.000000
                       0.000000  0.000000  0.000000  0.000000  0.000000  0.000000
                       0.000000  0.000000  0.000000  0.000000  0.000000  0.000000
                       0.000000  0.000000  0.000000  0.000000  0.000000  0.000000
                       0.000000  0.000000  0.000000  0.000000  0.000000  0.000000
                       0.000000  0.000000  0.000000  0.000000  0.000000  0.000000
                       0.000000  0.000000  0.000000  0.000000  0.000000  0.000000
                       0.000000  0.000000  0.000000  0.000000  0.000000  0.000000
                       0.000000  0.000000  0.000000  0.000000  0.000000  0.000000
                       0.000000  0.000000  0.000000  0.000000  0.000000  0.000000
                       0.000000  0.000000  0.000000  0.000000  0.000000  0.000000
                       0.000000  0.000000  0.000000  0.000000  0.000000  0.000000
                       0.000000  0.000000  0.000000  0.000000  0.000000  0.000000
                       0.000000  0.000000  0.000000  0.000000  0.000000  0.000000
                       0.000000  0.000000  0.000000  0.000000  0.000000  0.000000
                       0.000000  0.000000  0.000000  0.000000  0.000000  0.000000
                       0.000000  0.000000  0.000000  0.000000  0.000000  0.000000
                       0.000000  0.000000  0.000000  0.000000  0.000000  0.000000
                       0.000000  0.000000  0.000000  0.000000  0.000000  0.000000
                       0.000000  0.000000  0.000000  0.000000  0.000000  0.000000
                       0.000000  0.000000  0.000000  0.000000  0.000000  0.000000
                       0.000000  0.000000  0.000000  0.000000  0.000000  0.000000
                       0.000000  0.000000  0.000000  0.000000  0.000000  0.000000
                       0.000000  0.000000  0.000000  0.000000  0.000000  0.000000
                       0.000000  0.000000  0.000000  0.000000  0.000000  0.000000
                       0.000000  0.000000  0.000000  0.000000  0.000000  0.000000
                       0.000000  0.000000  0.000000  0.000000  0.000000  0.000000
                       0.000000  0.000000  0.000000  0.000000  0.000000  0.000000
                       0.000000  0.000000  0.000000  0.000000  0.000000  0.000000
                       0.000000  0.000000  0.000000  0.000000  0.000000  0.000000
                       0.000000  0.000000  0.000000  0.000000  0.000000  0.000000
                       0.000000  0.000000  0.000000  0.000000  0.000000  0.000000
                       0.000000  0.000000  0.000000  0.000000  0.000000  0.000000
                       0.000000  0.000000  0.000000  0.000000  0.000000  0.000000
                       0.000000  0.000000  0.000000  0.000000  0.000000  0.000000
                       0.000000  0.000000  0.000000  0.000000  0.000000  0.000000
                       0.000000  0.000000  0.000000  0.000000  0.000000  0.000000
                       0.000000  0.000000  0.000000  0.000000  0.000000  0.000000
                       0.000000  0.000000  0.000000  0.000000  0.000000  0.000000
                       0.000000  0.000000  0.000000  0.000000  0.000000  0.000000
                       0.000000  0.000000  0.000000  0.000000  0.000000  0.000000
                       0.000000  0.000000  0.000000  0.000000  0.000000  0.000000
                       0.000000  0.000000  0.000000  0.000000  0.000000  0.000000
                       0.000000  0.000000  0.000000  0.000000  0.000000  0.000000
                       0.000000  0.000000  0.000000  0.000000  0.000000  0.000000
                       0.000000  0.000000  0.000000  0.000000  0.000000  0.000000
                       0.000000  0.000000  0.000000  0.000000  0.000000  0.000000
                       0.000000  0.000000  0.000000  0.000000  0.000000  0.000000
                       0.000000  0.000000  0.000000  0.000000  0.000000  0.000000
                       0.000000  0.000000  0.000000  0.000000  0.000000  0.000000
                       0.000000  0.000000  0.000000  0.000000  0.000000  0.000000
                       0.000000  0.000000  0.000000  0.000000  0.000000  0.000000
                       0.000000  0.000000  0.000000  0.000000  0.000000  0.000000
                       0.000000  0.000000  0.000000  0.000000  0.000000  0.000000
                       0.000000  0.000000  0.000000  0.000000  0.000000  0.000000
                       0.000000  0.000000  0.000000  0.000000  0.000000  0.000000
                       0.000000  0.000000  0.000000  0.000000  0.000000  0.000000
                       0.000000  0.000000  0.000000  0.000000  0.000000  0.000000
                       0.000000  0.000000  0.000000  0.000000  0.000000  0.000000
                       0.000000  0.000000  0.000000  0.000000  0.000000  0.000000
                       0.000000  0.000000  0.000000  0.000000  0.000000  0.000000
                       0.000000  0.000000  0.000000  0.000000  0.000000  0.000000
                       0.000000  0.000000  0.000000  0.000000  0.000000  0.000000
                       0.000000  0.000000  0.000000  0.000000  0.000000  0.000000
                       0.000000  0.000000  0.000000  0.000000  0.000000  0.000000
                       0.000000  0.000000  0.000000  0.000000  0.000000  0.000000
                       0.000000  0.000000  0.000000  0.000000  0.000000  0.000000
                       0.000000  0.000000  0.000000  0.000000  0.000000  0.000000
                       0.000000  0.000000  0.000000  0.000000  0.000000  0.000000
                       0.000000  0.000000  0.000000  0.000000  0.000000  0.000000
                       0.000000  0.000000  0.000000  0.000000  0.000000  0.000000
                       0.000000  0.000000  0.000000  0.000000  0.000000  0.000000
                       0.000000  0.000000  0.000000  0.000000  0.000000  0.000000
                       0.000000  0.000000  0.000000  0.000000  0.000000  0.000000
                       0.000000  0.000000  0.000000  0.000000  0.000000  0.000000
                       0.000000  0.000000  0.000000  0.000000  0.000000  0.000000
                       0.000000  0.000000  0.000000  0.000000  0.000000  0.000000
                       0.000000  0.000000  0.000000  0.000000  0.000000  0.000000
                       0.000000  0.000000  0.000000  0.000000  0.000000  0.000000
                       0.000000  0.000000  0.000000  0.000000  0.000000  0.000000
                       0.000000  0.000000  0.000000  0.000000  0.000000  0.000000
                       0.000000  0.000000  0.000000  0.000000  0.000000  0.000000
                       0.000000  0.000000  0.000000  0.000000  0.000000  0.000000
                       0.000000  0.000000  0.000000  0.000000  0.000000  0.000000
                       0.000000  0.000000  0.000000  0.000000  0.000000  0.000000
                       0.000000  0.000000  0.000000  0.000000  0.000000  0.000000
                       0.000000  0.000000  0.000000  0.000000  0.000000  0.000000
                       0.000000  0.000000  0.000000  0.000000  0.000000  0.000000
              occ4     2.000000  2.000000  2.000000  2.000000  2.000000  2.000000
                       2.000000  2.000000  2.000000  2.000000  2.000000  2.000000
                       2.000000  2.000000  2.000000  2.000000  2.000000  2.000000
                       2.000000  2.000000  2.000000  2.000000  2.000000  2.000000
                       2.000000  2.000000  2.000000  2.000000  2.000000  2.000000
                       2.000000  2.000000  2.000000  2.000000  2.000000  2.000000
                       2.000000  2.000000  2.000000  2.000000  2.000000  2.000000
                       2.000000  2.000000  2.000000  2.000000  2.000000  2.000000
                       2.000000  2.000000  2.000000  2.000000  2.000000  2.000000
                       2.000000  2.000000  2.000000  2.000000  2.000000  2.000000
                       2.000000  2.000000  2.000000  2.000000  2.000000  2.000000
                       2.000000  2.000000  2.000000  2.000000  2.000000  2.000000
                       2.000000  2.000000  2.000000  2.000000  0.000000  0.000000
                       0.000000  0.000000  0.000000  0.000000  0.000000  0.000000
                       0.000000  0.000000  0.000000  0.000000  0.000000  0.000000
                       0.000000  0.000000  0.000000  0.000000  0.000000  0.000000
                       0.000000  0.000000  0.000000  0.000000  0.000000  0.000000
                       0.000000  0.000000  0.000000  0.000000  0.000000  0.000000
                       0.000000  0.000000  0.000000  0.000000  0.000000  0.000000
                       0.000000  0.000000  0.000000  0.000000  0.000000  0.000000
                       0.000000  0.000000  0.000000  0.000000  0.000000  0.000000
                       0.000000  0.000000  0.000000  0.000000  0.000000  0.000000
                       0.000000  0.000000  0.000000  0.000000  0.000000  0.000000
                       0.000000  0.000000  0.000000  0.000000  0.000000  0.000000
                       0.000000  0.000000  0.000000  0.000000  0.000000  0.000000
                       0.000000  0.000000  0.000000  0.000000  0.000000  0.000000
                       0.000000  0.000000  0.000000  0.000000  0.000000  0.000000
                       0.000000  0.000000  0.000000  0.000000  0.000000  0.000000
                       0.000000  0.000000  0.000000  0.000000  0.000000  0.000000
                       0.000000  0.000000  0.000000  0.000000  0.000000  0.000000
                       0.000000  0.000000  0.000000  0.000000  0.000000  0.000000
                       0.000000  0.000000  0.000000  0.000000  0.000000  0.000000
                       0.000000  0.000000  0.000000  0.000000  0.000000  0.000000
                       0.000000  0.000000  0.000000  0.000000  0.000000  0.000000
                       0.000000  0.000000  0.000000  0.000000  0.000000  0.000000
                       0.000000  0.000000  0.000000  0.000000  0.000000  0.000000
                       0.000000  0.000000  0.000000  0.000000  0.000000  0.000000
                       0.000000  0.000000  0.000000  0.000000  0.000000  0.000000
                       0.000000  0.000000  0.000000  0.000000  0.000000  0.000000
                       0.000000  0.000000  0.000000  0.000000  0.000000  0.000000
                       0.000000  0.000000  0.000000  0.000000  0.000000  0.000000
                       0.000000  0.000000  0.000000  0.000000  0.000000  0.000000
                       0.000000  0.000000  0.000000  0.000000  0.000000  0.000000
                       0.000000  0.000000  0.000000  0.000000  0.000000  0.000000
                       0.000000  0.000000  0.000000  0.000000  0.000000  0.000000
                       0.000000  0.000000  0.000000  0.000000  0.000000  0.000000
                       0.000000  0.000000  0.000000  0.000000  0.000000  0.000000
                       0.000000  0.000000  0.000000  0.000000  0.000000  0.000000
                       0.000000  0.000000  0.000000  0.000000  0.000000  0.000000
                       0.000000  0.000000  0.000000  0.000000  0.000000  0.000000
                       0.000000  0.000000  0.000000  0.000000  0.000000  0.000000
                       0.000000  0.000000  0.000000  0.000000  0.000000  0.000000
                       0.000000  0.000000  0.000000  0.000000  0.000000  0.000000
                       0.000000  0.000000  0.000000  0.000000  0.000000  0.000000
                       0.000000  0.000000  0.000000  0.000000  0.000000  0.000000
                       0.000000  0.000000  0.000000  0.000000  0.000000  0.000000
                       0.000000  0.000000  0.000000  0.000000  0.000000  0.000000
                       0.000000  0.000000  0.000000  0.000000  0.000000  0.000000
                       0.000000  0.000000  0.000000  0.000000  0.000000  0.000000
                       0.000000  0.000000  0.000000  0.000000  0.000000  0.000000
                       0.000000  0.000000  0.000000  0.000000  0.000000  0.000000
                       0.000000  0.000000  0.000000  0.000000  0.000000  0.000000
                       0.000000  0.000000  0.000000  0.000000  0.000000  0.000000
                       0.000000  0.000000  0.000000  0.000000  0.000000  0.000000
                       0.000000  0.000000  0.000000  0.000000  0.000000  0.000000
                       0.000000  0.000000  0.000000  0.000000  0.000000  0.000000
                       0.000000  0.000000  0.000000  0.000000  0.000000  0.000000
                       0.000000  0.000000  0.000000  0.000000  0.000000  0.000000
                       0.000000  0.000000  0.000000  0.000000  0.000000  0.000000
                       0.000000  0.000000  0.000000  0.000000  0.000000  0.000000
                       0.000000  0.000000  0.000000  0.000000  0.000000  0.000000
                       0.000000  0.000000  0.000000  0.000000  0.000000  0.000000
                       0.000000  0.000000  0.000000  0.000000  0.000000  0.000000
                       0.000000  0.000000  0.000000  0.000000  0.000000  0.000000
                       0.000000  0.000000  0.000000  0.000000  0.000000  0.000000
                       0.000000  0.000000  0.000000  0.000000  0.000000  0.000000
                       0.000000  0.000000  0.000000  0.000000  0.000000  0.000000
                       0.000000  0.000000  0.000000  0.000000  0.000000  0.000000
                       0.000000  0.000000  0.000000  0.000000  0.000000  0.000000
                       0.000000  0.000000  0.000000  0.000000  0.000000  0.000000
                       0.000000  0.000000  0.000000  0.000000  0.000000  0.000000
                       0.000000  0.000000  0.000000  0.000000  0.000000  0.000000
                       0.000000  0.000000  0.000000  0.000000  0.000000  0.000000
                       0.000000  0.000000  0.000000  0.000000  0.000000  0.000000
                       0.000000  0.000000  0.000000  0.000000  0.000000  0.000000
                       0.000000  0.000000  0.000000  0.000000  0.000000  0.000000
                       0.000000  0.000000  0.000000  0.000000  0.000000  0.000000
                       0.000000  0.000000  0.000000  0.000000  0.000000  0.000000
                       0.000000  0.000000  0.000000  0.000000  0.000000  0.000000
                       0.000000  0.000000  0.000000  0.000000  0.000000  0.000000
                       0.000000  0.000000  0.000000  0.000000  0.000000  0.000000
                       0.000000  0.000000  0.000000  0.000000  0.000000  0.000000
                       0.000000  0.000000  0.000000  0.000000  0.000000  0.000000
                       0.000000  0.000000  0.000000  0.000000  0.000000  0.000000
                       0.000000  0.000000  0.000000  0.000000  0.000000  0.000000
                       0.000000  0.000000  0.000000  0.000000  0.000000  0.000000
                       0.000000  0.000000  0.000000  0.000000  0.000000  0.000000
                       0.000000  0.000000  0.000000  0.000000  0.000000  0.000000
                       0.000000  0.000000  0.000000  0.000000  0.000000  0.000000
                       0.000000  0.000000  0.000000  0.000000  0.000000  0.000000
                       0.000000  0.000000  0.000000  0.000000  0.000000  0.000000
                       0.000000  0.000000  0.000000  0.000000  0.000000  0.000000
                       0.000000  0.000000  0.000000  0.000000  0.000000  0.000000
                       0.000000  0.000000  0.000000  0.000000  0.000000  0.000000
                       0.000000  0.000000  0.000000  0.000000  0.000000  0.000000
                       0.000000  0.000000  0.000000  0.000000  0.000000  0.000000
                       0.000000  0.000000  0.000000  0.000000  0.000000  0.000000
                       0.000000  0.000000  0.000000  0.000000  0.000000  0.000000
                       0.000000  0.000000  0.000000  0.000000  0.000000  0.000000
                       0.000000  0.000000  0.000000  0.000000  0.000000  0.000000
                       0.000000  0.000000  0.000000  0.000000  0.000000  0.000000
                       0.000000  0.000000  0.000000  0.000000  0.000000  0.000000
                       0.000000  0.000000  0.000000  0.000000  0.000000  0.000000
                       0.000000  0.000000  0.000000  0.000000  0.000000  0.000000
                       0.000000  0.000000  0.000000  0.000000  0.000000  0.000000
                       0.000000  0.000000  0.000000  0.000000  0.000000  0.000000
                       0.000000  0.000000  0.000000  0.000000  0.000000  0.000000
                       0.000000  0.000000  0.000000  0.000000  0.000000  0.000000
                       0.000000  0.000000  0.000000  0.000000  0.000000  0.000000
                       0.000000  0.000000  0.000000  0.000000  0.000000  0.000000
                       0.000000  0.000000  0.000000  0.000000  0.000000  0.000000
                       0.000000  0.000000  0.000000  0.000000  0.000000  0.000000
                       0.000000  0.000000  0.000000  0.000000  0.000000  0.000000
                       0.000000  0.000000  0.000000  0.000000  0.000000  0.000000
                       0.000000  0.000000  0.000000  0.000000  0.000000  0.000000
                       0.000000  0.000000  0.000000  0.000000  0.000000  0.000000
                       0.000000  0.000000  0.000000  0.000000  0.000000  0.000000
                       0.000000  0.000000  0.000000  0.000000  0.000000  0.000000
                       0.000000  0.000000  0.000000  0.000000  0.000000  0.000000
                       0.000000  0.000000  0.000000  0.000000  0.000000  0.000000
                       0.000000  0.000000  0.000000  0.000000  0.000000  0.000000
                       0.000000  0.000000  0.000000  0.000000  0.000000  0.000000
                       0.000000  0.000000  0.000000  0.000000  0.000000  0.000000
                       0.000000  0.000000  0.000000  0.000000  0.000000  0.000000
                       0.000000  0.000000  0.000000  0.000000  0.000000  0.000000
                       0.000000  0.000000  0.000000  0.000000  0.000000  0.000000
                       0.000000  0.000000  0.000000  0.000000  0.000000  0.000000
                       0.000000  0.000000  0.000000  0.000000  0.000000  0.000000
                       0.000000  0.000000  0.000000  0.000000  0.000000  0.000000
                       0.000000  0.000000  0.000000  0.000000  0.000000  0.000000
                       0.000000  0.000000  0.000000  0.000000  0.000000  0.000000
                       0.000000  0.000000  0.000000  0.000000  0.000000  0.000000
                       0.000000  0.000000  0.000000  0.000000  0.000000  0.000000
                       0.000000  0.000000  0.000000  0.000000  0.000000  0.000000
                       0.000000  0.000000  0.000000  0.000000  0.000000  0.000000
                       0.000000  0.000000  0.000000  0.000000  0.000000  0.000000
                       0.000000  0.000000  0.000000  0.000000  0.000000  0.000000
                       0.000000  0.000000  0.000000  0.000000  0.000000  0.000000
                       0.000000  0.000000  0.000000  0.000000  0.000000  0.000000
                       0.000000  0.000000  0.000000  0.000000  0.000000  0.000000
                       0.000000  0.000000  0.000000  0.000000  0.000000  0.000000
                       0.000000  0.000000  0.000000  0.000000  0.000000  0.000000
                       0.000000  0.000000  0.000000  0.000000  0.000000  0.000000
                       0.000000  0.000000  0.000000  0.000000  0.000000  0.000000
                       0.000000  0.000000  0.000000  0.000000  0.000000  0.000000
                       0.000000  0.000000  0.000000  0.000000  0.000000  0.000000
                       0.000000  0.000000  0.000000  0.000000  0.000000  0.000000
                       0.000000  0.000000  0.000000  0.000000  0.000000  0.000000
                       0.000000  0.000000  0.000000  0.000000  0.000000  0.000000
                       0.000000  0.000000  0.000000  0.000000  0.000000  0.000000
                       0.000000  0.000000  0.000000  0.000000  0.000000  0.000000
                       0.000000  0.000000  0.000000  0.000000  0.000000  0.000000
                       0.000000  0.000000  0.000000  0.000000  0.000000  0.000000
                       0.000000  0.000000  0.000000  0.000000  0.000000  0.000000
                       0.000000  0.000000  0.000000  0.000000  0.000000  0.000000
                       0.000000  0.000000  0.000000  0.000000  0.000000  0.000000
                       0.000000  0.000000  0.000000  0.000000  0.000000  0.000000
                       0.000000  0.000000  0.000000  0.000000  0.000000  0.000000
                       0.000000  0.000000  0.000000  0.000000  0.000000  0.000000
                       0.000000  0.000000  0.000000  0.000000  0.000000  0.000000
                       0.000000  0.000000  0.000000  0.000000  0.000000  0.000000
                       0.000000  0.000000  0.000000  0.000000  0.000000  0.000000
                       0.000000  0.000000  0.000000  0.000000  0.000000  0.000000
                       0.000000  0.000000  0.000000  0.000000  0.000000  0.000000
                       0.000000  0.000000  0.000000  0.000000  0.000000  0.000000
                       0.000000  0.000000  0.000000  0.000000  0.000000  0.000000
                       0.000000  0.000000  0.000000  0.000000  0.000000  0.000000
                       0.000000  0.000000  0.000000  0.000000  0.000000  0.000000
                       0.000000  0.000000  0.000000  0.000000  0.000000  0.000000
                       0.000000  0.000000  0.000000  0.000000  0.000000  0.000000
                       0.000000  0.000000  0.000000  0.000000  0.000000  0.000000
                       0.000000  0.000000  0.000000  0.000000  0.000000  0.000000
                       0.000000  0.000000  0.000000  0.000000  0.000000  0.000000
                       0.000000  0.000000  0.000000  0.000000  0.000000  0.000000
                       0.000000  0.000000  0.000000  0.000000  0.000000  0.000000
                       0.000000  0.000000  0.000000  0.000000  0.000000  0.000000
                       0.000000  0.000000  0.000000  0.000000  0.000000  0.000000
                       0.000000  0.000000  0.000000  0.000000  0.000000  0.000000
                       0.000000  0.000000  0.000000  0.000000  0.000000  0.000000
                       0.000000  0.000000  0.000000  0.000000  0.000000  0.000000
                       0.000000  0.000000  0.000000  0.000000  0.000000  0.000000
                       0.000000  0.000000  0.000000  0.000000  0.000000  0.000000
                       0.000000  0.000000  0.000000  0.000000  0.000000  0.000000
                       0.000000  0.000000  0.000000  0.000000  0.000000  0.000000
                       0.000000  0.000000  0.000000  0.000000  0.000000  0.000000
                       0.000000  0.000000  0.000000  0.000000  0.000000  0.000000
                       0.000000  0.000000  0.000000  0.000000  0.000000  0.000000
                       0.000000  0.000000  0.000000  0.000000  0.000000  0.000000
                       0.000000  0.000000  0.000000  0.000000  0.000000  0.000000
                       0.000000  0.000000  0.000000  0.000000  0.000000  0.000000
                       0.000000  0.000000  0.000000  0.000000  0.000000  0.000000
                       0.000000  0.000000  0.000000  0.000000  0.000000  0.000000
                       0.000000  0.000000  0.000000  0.000000  0.000000  0.000000
                       0.000000  0.000000  0.000000  0.000000  0.000000  0.000000
                       0.000000  0.000000  0.000000  0.000000  0.000000  0.000000
                       0.000000  0.000000  0.000000  0.000000  0.000000  0.000000
                       0.000000  0.000000  0.000000  0.000000  0.000000  0.000000
                       0.000000  0.000000  0.000000  0.000000  0.000000  0.000000
                       0.000000  0.000000  0.000000  0.000000  0.000000  0.000000
                       0.000000  0.000000  0.000000  0.000000  0.000000  0.000000
                       0.000000  0.000000  0.000000  0.000000  0.000000  0.000000
                       0.000000  0.000000  0.000000  0.000000  0.000000  0.000000
                       0.000000  0.000000  0.000000  0.000000  0.000000  0.000000
                       0.000000  0.000000  0.000000  0.000000  0.000000  0.000000
                       0.000000  0.000000  0.000000  0.000000  0.000000  0.000000
                       0.000000  0.000000  0.000000  0.000000  0.000000  0.000000
                       0.000000  0.000000  0.000000  0.000000  0.000000  0.000000
                       0.000000  0.000000  0.000000  0.000000  0.000000  0.000000
                       0.000000  0.000000  0.000000  0.000000  0.000000  0.000000
        optdriver3          3
        optdriver4          4
           ppmfrq3     6.13713734E-01 Hartree
           ppmfrq4     0.00000000E+00 Hartree
          spgroup          57
           symrel      1  0  0   0  1  0   0  0  1      -1  0  0   0 -1  0   0  0 -1
                      -1  0  0   0  1  0   0  0 -1       1  0  0   0 -1  0   0  0  1
                      -1  0  0   0 -1  0   0  0  1       1  0  0   0  1  0   0  0 -1
                       1  0  0   0 -1  0   0  0 -1      -1  0  0   0  1  0   0  0  1
            tnons      0.0000000  0.0000000  0.0000000    -0.0000000  0.0000000  0.0000000
                       0.5000000  0.5000000  0.0000000     0.5000000  0.5000000  0.0000000
                      -0.0000000  0.5000000  0.0000000     0.0000000  0.5000000  0.0000000
                       0.5000000  0.0000000  0.0000000     0.5000000  0.0000000  0.0000000
           toldfe      1.00000000E-08 Hartree
           tolsym      1.00000000E-04
            typat      1  1  1  1  1  1  1  1  1  1  1  1  1  1  1  1  1  1  1  1
                       1  1  1  1  2  2  2  2  2  2  2  2
          usekden           1
          vcutgeo      1.0000000  1.0000000  0.0000000
              wtk        0.02778    0.05556    0.05556    0.02778    0.05556    0.11111
                         0.11111    0.05556    0.05556    0.11111    0.11111    0.05556
                         0.02778    0.05556    0.05556    0.02778
           xangst      1.8802722574E+00  1.8443813900E+00  1.8447230489E+01
                       2.4717963972E+00  2.6982252952E+00  2.4552769511E+01
                       4.0563065847E+00  2.6982252952E+00  2.4552769511E+01
                       2.9576206984E-01  1.8443813900E+00  1.8447230489E+01
                       2.9576206984E-01  4.1156847326E+00  2.4552769511E+01
                       4.0563065847E+00  4.2692195258E-01  1.8447230489E+01
                       2.4717963972E+00  4.2692195258E-01  1.8447230489E+01
                       1.8802722574E+00  4.1156847326E+00  2.4552769511E+01
                       1.9067521508E+00  1.8947717124E+00  2.0873700219E+01
                       2.4453165038E+00  2.6478349728E+00  2.2126299781E+01
                       4.0827864781E+00  2.6478349728E+00  2.2126299781E+01
                       2.6928217646E-01  1.8947717124E+00  2.0873700219E+01
                       2.6928217646E-01  4.1660750550E+00  2.2126299781E+01
                       4.0827864781E+00  3.7653163020E-01  2.0873700219E+01
                       2.4453165038E+00  3.7653163020E-01  2.0873700219E+01
                       1.9067521508E+00  4.1660750550E+00  2.2126299781E+01
                       1.8977225185E+00  1.8760712064E+00  2.3382644152E+01
                       2.4543461361E+00  2.6665354788E+00  1.9617355848E+01
                       4.0737568458E+00  2.6665354788E+00  1.9617355848E+01
                       2.7831180877E-01  1.8760712064E+00  2.3382644152E+01
                       2.7831180877E-01  4.1473745490E+00  1.9617355848E+01
                       4.0737568458E+00  3.9523213622E-01  2.3382644152E+01
                       2.4543461361E+00  3.9523213622E-01  2.3382644152E+01
                       1.8977225185E+00  4.1473745490E+00  1.9617355848E+01
                      -2.7471125494E-03  4.5136284213E+00  1.7210367942E+01
                       4.3548157671E+00  2.8978263889E-02  2.5789632058E+01
                       2.1732872148E+00  2.8978263889E-02  2.5789632058E+01
                       2.1787814398E+00  4.5136284213E+00  1.7210367942E+01
                       2.1787814398E+00  2.2423250787E+00  2.5789632058E+01
                       2.1732872148E+00  2.3002816065E+00  1.7210367942E+01
                       4.3548157671E+00  2.3002816065E+00  1.7210367942E+01
                      -2.7471125494E-03  2.2423250787E+00  2.5789632058E+01
            xcart      3.5531996217E+00  3.4853757117E+00  3.4860213535E+01
                       4.6710182469E+00  5.0989068527E+00  4.6398010179E+01
                       7.6653085561E+00  5.0989068527E+00  4.6398010179E+01
                       5.5890931249E-01  3.4853757117E+00  3.4860213535E+01
                       5.5890931249E-01  7.7775169939E+00  4.6398010179E+01
                       7.6653085561E+00  8.0676557049E-01  3.4860213535E+01
                       4.6710182469E+00  8.0676557049E-01  3.4860213535E+01
                       3.5531996217E+00  7.7775169939E+00  4.6398010179E+01
                       3.6032393682E+00  3.5805996208E+00  3.9445576794E+01
                       4.6209785004E+00  5.0036829436E+00  4.1812646920E+01
                       7.7153483026E+00  5.0036829436E+00  4.1812646920E+01
                       5.0886956598E-01  3.5805996208E+00  3.9445576794E+01
                       5.0886956598E-01  7.8727409030E+00  4.1812646920E+01
                       7.7153483026E+00  7.1154166145E-01  3.9445576794E+01
                       4.6209785004E+00  7.1154166145E-01  3.9445576794E+01
                       3.6032393682E+00  7.8727409030E+00  4.1812646920E+01
                       3.5861758361E+00  3.5452607858E+00  4.4186793709E+01
                       4.6380420325E+00  5.0390217786E+00  3.7071430005E+01
                       7.6982847705E+00  5.0390217786E+00  3.7071430005E+01
                       5.2593309813E-01  3.5452607858E+00  4.4186793709E+01
                       5.2593309813E-01  7.8374020680E+00  3.7071430005E+01
                       7.6982847705E+00  7.4688049637E-01  4.4186793709E+01
                       4.6380420325E+00  7.4688049637E-01  4.4186793709E+01
                       3.5861758361E+00  7.8374020680E+00  3.7071430005E+01
                      -5.1912903747E-03  8.5295215818E+00  3.2522882056E+01
                       8.2294091590E+00  5.4760982556E-02  4.8735341658E+01
                       4.1069176440E+00  5.4760982556E-02  4.8735341658E+01
                       4.1173002246E+00  8.5295215818E+00  3.2522882056E+01
                       4.1173002246E+00  4.2373802996E+00  4.8735341658E+01
                       4.1069176440E+00  4.3469022648E+00  3.2522882056E+01
                       8.2294091590E+00  4.3469022648E+00  3.2522882056E+01
                      -5.1912903747E-03  4.2373802996E+00  4.8735341658E+01
             xred      4.3204103763E-01  4.0601828814E-01  4.2900536022E-01
                       5.6795896235E-01  5.9398171186E-01  5.7099463978E-01
                       9.3204103763E-01  5.9398171186E-01  5.7099463978E-01
                       6.7958962349E-02  4.0601828814E-01  4.2900536022E-01
                       6.7958962349E-02  9.0601828814E-01  5.7099463978E-01
                       9.3204103763E-01  9.3981711860E-02  4.2900536022E-01
                       5.6795896235E-01  9.3981711860E-02  4.2900536022E-01
                       4.3204103763E-01  9.0601828814E-01  5.7099463978E-01
                       4.3812547597E-01  4.1711110904E-01  4.8543488882E-01
                       5.6187452401E-01  5.8288889096E-01  5.1456511118E-01
                       9.3812547597E-01  5.8288889096E-01  5.1456511118E-01
                       6.1874524009E-02  4.1711110904E-01  4.8543488882E-01
                       6.1874524009E-02  9.1711110904E-01  5.1456511118E-01
                       9.3812547597E-01  8.2888890960E-02  4.8543488882E-01
                       5.6187452401E-01  8.2888890960E-02  4.8543488882E-01
                       4.3812547597E-01  9.1711110904E-01  5.1456511118E-01
                       4.3605068510E-01  4.1299441849E-01  5.4378242213E-01
                       5.6394931488E-01  5.8700558151E-01  4.5621757787E-01
                       9.3605068510E-01  5.8700558151E-01  4.5621757787E-01
                       6.3949314879E-02  4.1299441849E-01  5.4378242213E-01
                       6.3949314879E-02  9.1299441849E-01  4.5621757787E-01
                       9.3605068510E-01  8.7005581511E-02  5.4378242213E-01
                       5.6394931488E-01  8.7005581511E-02  5.4378242213E-01
                       4.3605068510E-01  9.1299441849E-01  4.5621757787E-01
                      -6.3121994790E-04  9.9362078518E-01  4.0024111492E-01
                       1.0006312199E+00  6.3792148203E-03  5.9975888508E-01
                       4.9936878005E-01  6.3792148203E-03  5.9975888508E-01
                       5.0063121993E-01  9.9362078518E-01  4.0024111492E-01
                       5.0063121993E-01  4.9362078518E-01  5.9975888508E-01
                       4.9936878005E-01  5.0637921482E-01  4.0024111492E-01
                       1.0006312199E+00  5.0637921482E-01  4.0024111492E-01
                      -6.3121994790E-04  4.9362078518E-01  5.9975888508E-01
            znucl        6.00000    9.00000
 
================================================================================
 
 chkinp: Checking input parameters for consistency, jdtset=   3.
 
 chkinp: Checking input parameters for consistency, jdtset=   4.
 
================================================================================
== DATASET  3 ==================================================================
-   mpi_nproc: 96, omp_nthreads: -1 (-1 if OMP is not activated)
 

--- !DatasetInfo
iteration_state: {dtset: 3, }
dimensions: {natom: 32, nkpt: 16, mband: 876, nsppol: 1, nspinor: 1, nspden: 1, mpw: 97062, }
cutoff_energies: {ecut:  50.0, pawecutdg:  -1.0, }
electrons: {nelect:   1.52000000E+02, charge:   0.00000000E+00, occopt:   1.00000000E+00, tsmear:   1.00000000E-02, }
meta: {optdriver: 3, gwcalctyp: 0, }
...

 mkfilename : getwfk/=0, take file _WFK from output of DATASET   2.
 
 SCREENING: Calculation of the susceptibility and dielectric matrices 
 
 Based on a program developped by R.W. Godby, V. Olevano, G. Onida, and L. Reining.
 Incorporated in ABINIT by V. Olevano, G.-M. Rignanese, and M. Torrent.
.Using single precision arithmetic ; gwpc =  4
 
 Real(R)+Recip(G) space primitive vectors, cartesian coordinates (Bohr,Bohr^-1):
 R(1)=  8.2242179  0.0000000  0.0000000  G(1)=  0.1215921  0.0000000  0.0000000
 R(2)=  0.0000000  8.5842826  0.0000000  G(2)=  0.0000000  0.1164920  0.0000000
 R(3)=  0.0000000  0.0000000 81.2582237  G(3)=  0.0000000  0.0000000  0.0123064
 Unit cell volume ucvol=  5.7367502E+03 bohr^3
 Angles (23,13,12)=  9.00000000E+01  9.00000000E+01  9.00000000E+01 degrees
 
--- Pseudopotential description ------------------------------------------------
- pspini: atom type   1  psp file is ../6c.4.hgh
- pspatm: opening atomic psp file    ../6c.4.hgh
- Hartwigsen-Goedecker-Hutter psp for C,  from PRB58, 3641 (1998)
-  6.00000   4.00000     10605                znucl, zion, pspdat
    3    1    1    0      2001   0.00000      pspcod,pspxc,lmax,lloc,mmax,r2well
 rloc=   0.3488300
 cc1 =  -8.5137710; cc2 =   1.2284320; cc3 =   0.0000000; cc4 =   0.0000000
 rrs =   0.3045530; h11s=   9.5228420; h22s=   0.0000000; h33s=   0.0000000
 rrp =   0.2326770; h11p=   0.0000000; h22p=   0.0000000; h33p=   0.0000000
                    k11p=   0.0041040; k22p=   0.0000000; k33p=   0.0000000
-  Local part computed in reciprocal space.
 
 pspatm : COMMENT -
  the projectors are not normalized,
  so that the KB energies are not consistent with 
  definition in PRB44, 8503 (1991). 
  However, this does not influence the results obtained hereafter.
  pspatm : epsatm=   -0.16969744
         --- l  ekb(1:nproj) -->
             0    0.953587
 pspatm: atomic psp has been read  and splines computed
 
- pspini: atom type   2  psp file is ../9f.7.hgh
- pspatm: opening atomic psp file    ../9f.7.hgh
- Hartwigsen-Goedecker-Hutter psp for F,  from PRB58, 3641 (1998)
-  9.00000   7.00000     10605                znucl, zion, pspdat
    3    1    1    0      2001   0.00000      pspcod,pspxc,lmax,lloc,mmax,r2well
 rloc=   0.2185250
 cc1 = -21.3073610; cc2 =   3.0728690; cc3 =   0.0000000; cc4 =   0.0000000
 rrs =   0.1955670; h11s=  23.5849420; h22s=   0.0000000; h33s=   0.0000000
 rrp =   0.1742680; h11p=   0.0000000; h22p=   0.0000000; h33p=   0.0000000
                    k11p=   0.0151060; k22p=   0.0000000; k33p=   0.0000000
-  Local part computed in reciprocal space.
 
 pspatm : COMMENT -
  the projectors are not normalized,
  so that the KB energies are not consistent with 
  definition in PRB44, 8503 (1991). 
  However, this does not influence the results obtained hereafter.
  pspatm : epsatm=    0.11349172
         --- l  ekb(1:nproj) -->
             0    0.625355
 pspatm: atomic psp has been read  and splines computed
 
  -4.81050342E+02                                ecore*ucvol(ha*bohr**3)
--------------------------------------------------------------------------------
 
 ==== K-mesh for the wavefunctions ====
 Number of points in the irreducible wedge :    16
 Reduced coordinates and weights : 
 
     1)     0.00000000E+00  0.00000000E+00  0.00000000E+00       0.02778
     2)     1.66666667E-01  0.00000000E+00  0.00000000E+00       0.05556
     3)     3.33333333E-01  0.00000000E+00  0.00000000E+00       0.05556
     4)     5.00000000E-01  0.00000000E+00  0.00000000E+00       0.02778
     5)     0.00000000E+00  1.66666667E-01  0.00000000E+00       0.05556
     6)     1.66666667E-01  1.66666667E-01  0.00000000E+00       0.11111
     7)     3.33333333E-01  1.66666667E-01  0.00000000E+00       0.11111
     8)     5.00000000E-01  1.66666667E-01  0.00000000E+00       0.05556
     9)     0.00000000E+00  3.33333333E-01  0.00000000E+00       0.05556
    10)     1.66666667E-01  3.33333333E-01  0.00000000E+00       0.11111
    11)     3.33333333E-01  3.33333333E-01  0.00000000E+00       0.11111
    12)     5.00000000E-01  3.33333333E-01  0.00000000E+00       0.05556
    13)     0.00000000E+00  5.00000000E-01  0.00000000E+00       0.02778
    14)     1.66666667E-01  5.00000000E-01  0.00000000E+00       0.05556
    15)     3.33333333E-01  5.00000000E-01  0.00000000E+00       0.05556
    16)     5.00000000E-01  5.00000000E-01  0.00000000E+00       0.02778
 
 Together with  8 symmetry operations and time-reversal symmetry 
 yields    36 points in the full Brillouin Zone.
 
 
 ==== Q-mesh for the screening function ====
 Number of points in the irreducible wedge :    16
 Reduced coordinates and weights : 
 
     1)     0.00000000E+00  0.00000000E+00  0.00000000E+00       0.02778
     2)     1.66666667E-01  0.00000000E+00  0.00000000E+00       0.05556
     3)     3.33333333E-01  0.00000000E+00  0.00000000E+00       0.05556
     4)     5.00000000E-01  0.00000000E+00  0.00000000E+00       0.02778
     5)     0.00000000E+00  1.66666667E-01  0.00000000E+00       0.05556
     6)     1.66666667E-01  1.66666667E-01  0.00000000E+00       0.11111
     7)     3.33333333E-01  1.66666667E-01  0.00000000E+00       0.11111
     8)     5.00000000E-01  1.66666667E-01  0.00000000E+00       0.05556
     9)     0.00000000E+00  3.33333333E-01  0.00000000E+00       0.05556
    10)     1.66666667E-01  3.33333333E-01  0.00000000E+00       0.11111
    11)     3.33333333E-01  3.33333333E-01  0.00000000E+00       0.11111
    12)     5.00000000E-01  3.33333333E-01  0.00000000E+00       0.05556
    13)     0.00000000E+00  5.00000000E-01  0.00000000E+00       0.02778
    14)     1.66666667E-01  5.00000000E-01  0.00000000E+00       0.05556
    15)     3.33333333E-01  5.00000000E-01  0.00000000E+00       0.05556
    16)     5.00000000E-01  5.00000000E-01  0.00000000E+00       0.02778
 
 Together with  8 symmetry operations and time-reversal symmetry 
 yields    36 points in the full Brillouin Zone.
 
 
 setmesh: FFT mesh size selected  =    36x   36x  360
          total number of points  =       466560
 
 
- screening: taking advantage of time-reversal symmetry 
- Maximum band index for partially occupied states nbvw = 76
- Remaining bands to be divided among processors   nbcw = 800
- Number of bands treated by each node ~8
 
 Number of electrons calculated from density =  152.0000; Expected =  152.0000
 average of density, n =  0.026496
 r_s =    2.0809
 omega_plasma =   15.7016 [eV]
 
 
 calculating chi0 at frequencies [eV] :
  1    0.000000E+00    0.000000E+00
  2    0.000000E+00    1.670000E+01
 
 
--------------------------------------------------------------------------------
  q-point number  1        q = ( 0.000000, 0.000000, 0.000000) [r.l.u.]
--------------------------------------------------------------------------------
  chi0(G,G') at the    1 th omega   0.0000   0.0000 [eV]
       1       2       3       4       5       6       7       8       9
    1  -0.000   0.000  -0.000  -0.000   0.000   0.000  -0.000  -0.000   0.000
        0.000  -0.000  -0.000  -0.000   0.000  -0.000  -0.000   0.000   0.000
 
    2   0.000  -2.442   1.879   4.484  -2.527  -5.294   1.842   4.541  -0.304
        0.000   0.000   0.000   0.000  -0.000   0.000   0.000   0.000  -0.000
 
  chi0(G,G') at the    2 th omega   0.0000  16.7000 [eV]
       1       2       3       4       5       6       7       8       9
    1  -0.000   0.000  -0.000  -0.000   0.000   0.000  -0.000  -0.000   0.000
       -0.000   0.000  -0.000  -0.000   0.000   0.000  -0.000   0.000   0.000
 
    2   0.000  -0.916   0.661   1.678  -0.803  -1.930   0.423   1.535   0.232
       -0.000   0.000   0.000   0.000  -0.000   0.000   0.000   0.000  -0.000
 
 For q-point:  0.000010 0.000020 0.000030
  dielectric constant =   1.0007
  dielectric constant without local fields =   1.0007
 
  Average fulfillment of the sum rule on Im[epsilon] for q-point    1 :    162.67  [%]
  Heads and wings of the symmetrical epsilon^-1(G,G') 
 
   Upper and lower wings at the    1 th omega   0.0000   0.0000 [eV]
       1       2       3       4       5       6       7       8       9
      0.999   0.001  -0.001  -0.000   0.000   0.000  -0.000  -0.000   0.000
     -0.000  -0.000  -0.000  -0.000   0.000   0.000  -0.000   0.000   0.000
       1       2       3       4       5       6       7       8       9
      0.999   0.001  -0.001  -0.000   0.000   0.000  -0.000  -0.000   0.000
     -0.000   0.000   0.000   0.000  -0.000  -0.000   0.000  -0.000  -0.000
 
 
   Upper and lower wings at the    2 th omega   0.0000  16.7000 [eV]
       1       2       3       4       5       6       7       8       9
      1.000   0.001  -0.001  -0.000   0.000   0.000  -0.000  -0.000   0.000
      0.000  -0.000  -0.000  -0.000   0.000   0.000  -0.000   0.000   0.000
       1       2       3       4       5       6       7       8       9
      1.000   0.001  -0.001  -0.000   0.000   0.000  -0.000  -0.000   0.000
      0.000   0.000   0.000   0.000  -0.000  -0.000   0.000  -0.000  -0.000
 
 
 
 
--------------------------------------------------------------------------------
  q-point number  2        q = ( 0.166667, 0.000000, 0.000000) [r.l.u.]
--------------------------------------------------------------------------------
  chi0(G,G') at the    1 th omega   0.0000   0.0000 [eV]
       1       2       3       4       5       6       7       8       9
    1  -6.826   6.406   6.406  -5.255  -5.255   3.659   3.659  -1.992  -1.992
        0.000   0.000  -0.000  -0.000  -0.000  -0.000  -0.000   0.000  -0.000
 
    2   6.406  -9.115  -3.501  10.605   1.323 -10.193  -0.333   7.854   0.410
       -0.000   0.000   0.000   0.000  -0.000  -0.000   0.000   0.000  -0.000
 
  chi0(G,G') at the    2 th omega   0.0000  16.7000 [eV]
       1       2       3       4       5       6       7       8       9
    1  -2.352   2.184   2.184  -1.726  -1.726   1.104   1.104  -0.477  -0.477
        0.000   0.000  -0.000  -0.000  -0.000   0.000  -0.000   0.000  -0.000
 
    2   2.184  -3.242  -1.085   3.814   0.328  -3.597  -0.075   2.586   0.226
       -0.000   0.000   0.000   0.000  -0.000  -0.000   0.000   0.000  -0.000
 
  Average fulfillment of the sum rule on Im[epsilon] for q-point    2 :     80.99  [%]
 
 
--------------------------------------------------------------------------------
  q-point number  3        q = ( 0.333333, 0.000000, 0.000000) [r.l.u.]
--------------------------------------------------------------------------------
  chi0(G,G') at the    1 th omega   0.0000   0.0000 [eV]
       1       2       3       4       5       6       7       8       9
    1 -23.287  21.821  21.821 -17.807 -17.807  12.258  12.258  -6.490  -6.490
        0.000   0.000  -0.000  -0.000  -0.000   0.000  -0.000  -0.000  -0.000
 
    2  21.821 -25.269 -16.302  25.448  10.287 -22.037  -5.160  15.781   1.694
       -0.000   0.000   0.000   0.000  -0.000  -0.000   0.000   0.000  -0.000
 
  chi0(G,G') at the    2 th omega   0.0000  16.7000 [eV]
       1       2       3       4       5       6       7       8       9
    1  -8.907   8.265   8.265  -6.518  -6.518   4.147   4.147  -1.762  -1.762
        0.000   0.000  -0.000  -0.000  -0.000   0.000  -0.000  -0.000  -0.000
 
    2   8.265  -9.727  -5.931   9.765   3.445  -8.234  -1.417   5.490   0.160
       -0.000   0.000   0.000   0.000  -0.000  -0.000   0.000   0.000  -0.000
 
  Average fulfillment of the sum rule on Im[epsilon] for q-point    3 :     77.11  [%]
 
 
--------------------------------------------------------------------------------
  q-point number  4        q = ( 0.500000, 0.000000, 0.000000) [r.l.u.]
--------------------------------------------------------------------------------
  chi0(G,G') at the    1 th omega   0.0000   0.0000 [eV]
       1       2       3       4       5       6       7       8       9
    1 -42.512  39.754  39.754 -32.208 -32.208  21.817  21.817 -11.087 -11.087
        0.000   0.000  -0.000  -0.000  -0.000   0.000  -0.000  -0.000  -0.000
 
    2  39.754 -44.215 -30.922  42.862  20.150 -35.811 -10.000  24.774   2.364
       -0.000   0.000   0.000   0.000  -0.000  -0.000   0.000   0.000  -0.000
 
  chi0(G,G') at the    2 th omega   0.0000  16.7000 [eV]
       1       2       3       4       5       6       7       8       9
    1 -18.421  17.078  17.078 -13.427 -13.427   8.478   8.478  -3.516  -3.516
        0.000   0.000  -0.000  -0.000  -0.000   0.000  -0.000  -0.000  -0.000
 
    2  17.078 -19.147 -12.912  18.404   7.871 -14.935  -3.239   9.640  -0.062
       -0.000   0.000   0.000   0.000  -0.000  -0.000   0.000   0.000  -0.000
 
  Average fulfillment of the sum rule on Im[epsilon] for q-point    4 :     76.07  [%]
 
 
--------------------------------------------------------------------------------
  q-point number  5        q = ( 0.000000, 0.166667, 0.000000) [r.l.u.]
--------------------------------------------------------------------------------
  chi0(G,G') at the    1 th omega   0.0000   0.0000 [eV]
       1       2       3       4       5       6       7       8       9
    1  -5.941   5.559   5.559  -4.517  -4.517   3.086   3.086  -1.618  -1.618
        0.000   0.000  -0.000  -0.000  -0.000  -0.000  -0.000   0.000  -0.000
 
    2   5.559  -8.195  -2.794   9.694   0.798  -9.376  -0.006   7.205   0.271
       -0.000   0.000   0.000   0.000  -0.000  -0.000   0.000   0.000  -0.000
 
  chi0(G,G') at the    2 th omega   0.0000  16.7000 [eV]
       1       2       3       4       5       6       7       8       9
    1  -2.156   2.000   2.000  -1.576  -1.576   1.001   1.001  -0.426  -0.426
        0.000   0.000  -0.000  -0.000  -0.000  -0.000  -0.000   0.000  -0.000
 
    2   2.000  -3.044  -0.937   3.627   0.228  -3.444  -0.026   2.480   0.221
       -0.000   0.000   0.000   0.000  -0.000  -0.000   0.000   0.000  -0.000
 
  Average fulfillment of the sum rule on Im[epsilon] for q-point    5 :     81.23  [%]
 
 
--------------------------------------------------------------------------------
  q-point number  6        q = ( 0.166667, 0.166667, 0.000000) [r.l.u.]
--------------------------------------------------------------------------------
  chi0(G,G') at the    1 th omega   0.0000   0.0000 [eV]
       1       2       3       4       5       6       7       8       9
    1 -12.354  11.575  11.575  -9.441  -9.441   6.500   6.500  -3.457  -3.457
        0.000   0.000  -0.000  -0.000  -0.000   0.000  -0.000  -0.000   0.000
 
    2  11.575 -14.468  -7.834  15.447   4.386 -13.972  -2.012  10.300   0.904
       -0.000   0.000   0.000   0.000  -0.000  -0.000   0.000   0.000  -0.000
 
  chi0(G,G') at the    2 th omega   0.0000  16.7000 [eV]
       1       2       3       4       5       6       7       8       9
    1  -4.444   4.124   4.124  -3.252  -3.252   2.070   2.070  -0.883  -0.883
        0.000   0.000  -0.000  -0.000  -0.000   0.000  -0.000   0.000  -0.000
 
    2   4.124  -5.307  -2.632   5.704   1.324  -5.064  -0.504   3.498   0.208
       -0.000   0.000   0.000   0.000  -0.000  -0.000   0.000   0.000  -0.000
 
  Average fulfillment of the sum rule on Im[epsilon] for q-point    6 :     79.07  [%]
 
 
--------------------------------------------------------------------------------
  q-point number  7        q = ( 0.333333, 0.166667, 0.000000) [r.l.u.]
--------------------------------------------------------------------------------
  chi0(G,G') at the    1 th omega   0.0000   0.0000 [eV]
       1       2       3       4       5       6       7       8       9
    1 -28.019  26.237  26.237 -21.361 -21.361  14.638  14.638  -7.678  -7.678
        0.000   0.000  -0.000  -0.000  -0.000   0.000  -0.000  -0.000   0.000
 
    2  26.237 -29.844 -19.987  29.572  12.865 -25.229  -6.539  17.810   2.059
       -0.000   0.000   0.000   0.000  -0.000  -0.000   0.000   0.000  -0.000
 
  chi0(G,G') at the    2 th omega   0.0000  16.7000 [eV]
       1       2       3       4       5       6       7       8       9
    1 -10.829  10.045  10.045  -7.914  -7.914   5.022   5.022  -2.120  -2.120
        0.000   0.000  -0.000  -0.000  -0.000   0.000  -0.000  -0.000  -0.000
 
    2  10.045 -11.625  -7.345  11.501   4.346  -9.575  -1.794   6.317   0.126
       -0.000   0.000   0.000   0.000  -0.000  -0.000   0.000   0.000  -0.000
 
  Average fulfillment of the sum rule on Im[epsilon] for q-point    7 :     76.62  [%]
 
 
--------------------------------------------------------------------------------
  q-point number  8        q = ( 0.500000, 0.166667, 0.000000) [r.l.u.]
--------------------------------------------------------------------------------
  chi0(G,G') at the    1 th omega   0.0000   0.0000 [eV]
       1       2       3       4       5       6       7       8       9
    1 -46.558  43.524  43.524 -35.230 -35.230  23.822  23.822 -12.068 -12.068
        0.000   0.000  -0.000  -0.000  -0.000   0.000  -0.000  -0.000   0.000
 
    2  43.524 -48.118 -34.063  46.367  22.337 -38.503 -11.156  26.459   2.656
       -0.000   0.000   0.000   0.000  -0.000  -0.000   0.000   0.000  -0.000
 
  chi0(G,G') at the    2 th omega   0.0000  16.7000 [eV]
       1       2       3       4       5       6       7       8       9
    1 -20.115  18.644  18.644 -14.649 -14.649   9.235   9.235  -3.811  -3.811
        0.000   0.000  -0.000  -0.000  -0.000   0.000  -0.000  -0.000  -0.000
 
    2  18.644 -20.820 -14.149  19.932   8.650 -16.110  -3.550  10.355  -0.112
       -0.000   0.000   0.000   0.000  -0.000  -0.000   0.000   0.000  -0.000
 
  Average fulfillment of the sum rule on Im[epsilon] for q-point    8 :     75.84  [%]
 
 
--------------------------------------------------------------------------------
  q-point number  9        q = ( 0.000000, 0.333333, 0.000000) [r.l.u.]
--------------------------------------------------------------------------------
  chi0(G,G') at the    1 th omega   0.0000   0.0000 [eV]
       1       2       3       4       5       6       7       8       9
    1 -21.041  19.676  19.676 -15.949 -15.949  10.837  10.837  -5.595  -5.595
        0.000  -0.000  -0.000  -0.000  -0.000  -0.000  -0.000  -0.000  -0.000
 
    2  19.676 -22.909 -14.541  23.091   9.015 -19.915  -4.411  14.103   1.437
        0.000   0.000   0.000   0.000   0.000   0.000   0.000   0.000  -0.000
 
  chi0(G,G') at the    2 th omega   0.0000  16.7000 [eV]
       1       2       3       4       5       6       7       8       9
    1  -8.228   7.628   7.628  -6.001  -6.001   3.798   3.798  -1.593  -1.593
        0.000   0.000  -0.000  -0.000  -0.000  -0.000  -0.000  -0.000  -0.000
 
    2   7.628  -9.042  -5.419   9.118   3.103  -7.702  -1.254   5.127   0.151
       -0.000   0.000   0.000   0.000   0.000  -0.000   0.000   0.000  -0.000
 
  Average fulfillment of the sum rule on Im[epsilon] for q-point    9 :     77.36  [%]
 
 
--------------------------------------------------------------------------------
  q-point number 10        q = ( 0.166667, 0.333333, 0.000000) [r.l.u.]
--------------------------------------------------------------------------------
  chi0(G,G') at the    1 th omega   0.0000   0.0000 [eV]
       1       2       3       4       5       6       7       8       9
    1 -26.407  24.700  24.700 -20.035 -20.035  13.631  13.631  -7.052  -7.052
        0.000   0.000  -0.000  -0.000  -0.000   0.000  -0.000  -0.000  -0.000
 
    2  24.700 -28.163 -18.719  27.905  11.946 -23.741  -5.997  16.646   1.872
       -0.000   0.000   0.000   0.000  -0.000  -0.000   0.000   0.000  -0.000
 
  chi0(G,G') at the    2 th omega   0.0000  16.7000 [eV]
       1       2       3       4       5       6       7       8       9
    1 -10.339   9.586   9.586  -7.541  -7.541   4.771   4.771  -1.998  -1.998
        0.000   0.000  -0.000  -0.000  -0.000   0.000  -0.000  -0.000  -0.000
 
    2   9.586 -11.130  -6.976  11.034   4.099  -9.192  -1.677   6.056   0.120
       -0.000   0.000   0.000   0.000  -0.000  -0.000   0.000   0.000  -0.000
 
  Average fulfillment of the sum rule on Im[epsilon] for q-point   10 :     76.76  [%]
 
 
--------------------------------------------------------------------------------
  q-point number 11        q = ( 0.333333, 0.333333, 0.000000) [r.l.u.]
--------------------------------------------------------------------------------
  chi0(G,G') at the    1 th omega   0.0000   0.0000 [eV]
       1       2       3       4       5       6       7       8       9
    1 -39.977  37.383  37.383 -30.297 -30.297  20.562  20.562 -10.554 -10.554
        0.000   0.000  -0.000  -0.000  -0.000   0.000  -0.000  -0.000   0.000
 
    2  37.383 -41.491 -29.175  40.140  19.160 -33.450  -9.747  23.058   2.703
       -0.000   0.000   0.000   0.000  -0.000  -0.000   0.000   0.000  -0.000
 
  chi0(G,G') at the    2 th omega   0.0000  16.7000 [eV]
       1       2       3       4       5       6       7       8       9
    1 -16.250  15.063  15.063 -11.839 -11.839   7.472   7.472  -3.101  -3.101
        0.000   0.000  -0.000  -0.000  -0.000   0.000  -0.000  -0.000  -0.000
 
    2  15.063 -16.982 -11.320  16.399   6.862 -13.357  -2.825   8.640  -0.001
       -0.000   0.000   0.000   0.000  -0.000  -0.000   0.000   0.000  -0.000
 
  Average fulfillment of the sum rule on Im[epsilon] for q-point   11 :     75.78  [%]
 
 
--------------------------------------------------------------------------------
  q-point number 12        q = ( 0.500000, 0.333333, 0.000000) [r.l.u.]
--------------------------------------------------------------------------------
  chi0(G,G') at the    1 th omega   0.0000   0.0000 [eV]
       1       2       3       4       5       6       7       8       9
    1 -56.662  52.928  52.928 -42.731 -42.731  28.740  28.740 -14.391 -14.391
        0.000   0.000  -0.000  -0.000  -0.000   0.000  -0.000  -0.000  -0.000
 
    2  52.928 -57.945 -41.788  55.255  27.584 -45.367 -13.775  30.775   3.117
       -0.000   0.000   0.000   0.000  -0.000  -0.000   0.000   0.000  -0.000
 
  chi0(G,G') at the    2 th omega   0.0000  16.7000 [eV]
       1       2       3       4       5       6       7       8       9
    1 -24.899  23.066  23.066 -18.089 -18.089  11.354  11.354  -4.623  -4.623
        0.000   0.000  -0.000  -0.000  -0.000   0.000  -0.000  -0.000  -0.000
 
    2  23.066 -25.548 -17.632  24.250  10.826 -19.427  -4.404  12.367  -0.279
       -0.000   0.000   0.000   0.000  -0.000  -0.000   0.000   0.000  -0.000
 
  Average fulfillment of the sum rule on Im[epsilon] for q-point   12 :     75.41  [%]
 
 
--------------------------------------------------------------------------------
  q-point number 13        q = ( 0.000000, 0.500000, 0.000000) [r.l.u.]
--------------------------------------------------------------------------------
  chi0(G,G') at the    1 th omega   0.0000   0.0000 [eV]
       1       2       3       4       5       6       7       8       9
    1 -40.062  37.419  37.419 -30.205 -30.205  20.323  20.323 -10.217 -10.217
        0.000   0.000  -0.000  -0.000  -0.000  -0.000  -0.000  -0.000  -0.000
 
    2  37.419 -41.578 -29.074  40.177  18.891 -33.371  -9.351  22.856   2.274
       -0.000   0.000   0.000   0.000   0.000  -0.000   0.000   0.000  -0.000
 
  chi0(G,G') at the    2 th omega   0.0000  16.7000 [eV]
       1       2       3       4       5       6       7       8       9
    1 -17.203  15.939  15.939 -12.507 -12.507   7.866   7.866  -3.232  -3.232
        0.000   0.000  -0.000  -0.000  -0.000  -0.000  -0.000  -0.000  -0.000
 
    2  15.939 -17.917 -12.001  17.243   7.273 -13.987  -2.967   9.001  -0.057
       -0.000   0.000   0.000   0.000   0.000  -0.000   0.000   0.000  -0.000
 
  Average fulfillment of the sum rule on Im[epsilon] for q-point   13 :     76.31  [%]
 
 
--------------------------------------------------------------------------------
  q-point number 14        q = ( 0.166667, 0.500000, 0.000000) [r.l.u.]
--------------------------------------------------------------------------------
  chi0(G,G') at the    1 th omega   0.0000   0.0000 [eV]
       1       2       3       4       5       6       7       8       9
    1 -44.141  41.225  41.225 -33.267 -33.267  22.368  22.368 -11.221 -11.221
        0.000   0.000  -0.000  -0.000  -0.000   0.000  -0.000  -0.000  -0.000
 
    2  41.225 -45.576 -32.201  43.835  21.031 -36.250 -10.441  24.726   2.489
       -0.000   0.000   0.000   0.000  -0.000  -0.000   0.000   0.000  -0.000
 
  chi0(G,G') at the    2 th omega   0.0000  16.7000 [eV]
       1       2       3       4       5       6       7       8       9
    1 -19.061  17.659  17.659 -13.853 -13.853   8.705   8.705  -3.566  -3.566
        0.000   0.000  -0.000  -0.000  -0.000   0.000  -0.000  -0.000  -0.000
 
    2  17.659 -19.756 -13.361  18.928   8.132 -15.291  -3.315   9.804  -0.108
       -0.000   0.000   0.000   0.000  -0.000  -0.000   0.000   0.000  -0.000
 
  Average fulfillment of the sum rule on Im[epsilon] for q-point   14 :     76.01  [%]
 
 
--------------------------------------------------------------------------------
  q-point number 15        q = ( 0.333333, 0.500000, 0.000000) [r.l.u.]
--------------------------------------------------------------------------------
  chi0(G,G') at the    1 th omega   0.0000   0.0000 [eV]
       1       2       3       4       5       6       7       8       9
    1 -54.967  51.319  51.319 -41.366 -41.366  27.737  27.737 -13.805 -13.805
        0.000   0.000  -0.000  -0.000  -0.000   0.000  -0.000  -0.000  -0.000
 
    2  51.319 -56.218 -40.447  53.587  26.610 -43.931 -13.207  29.707   2.929
       -0.000   0.000   0.000   0.000  -0.000  -0.000   0.000   0.000  -0.000
 
  chi0(G,G') at the    2 th omega   0.0000  16.7000 [eV]
       1       2       3       4       5       6       7       8       9
    1 -24.292  22.499  22.499 -17.631 -17.631  11.049  11.049  -4.482  -4.482
        0.000   0.000  -0.000  -0.000  -0.000   0.000  -0.000  -0.000  -0.000
 
    2  22.499 -24.936 -17.178  23.673  10.527 -18.957  -4.267  12.051  -0.278
       -0.000   0.000   0.000   0.000  -0.000  -0.000   0.000   0.000  -0.000
 
  Average fulfillment of the sum rule on Im[epsilon] for q-point   15 :     75.46  [%]
 
 
--------------------------------------------------------------------------------
  q-point number 16        q = ( 0.500000, 0.500000, 0.000000) [r.l.u.]
--------------------------------------------------------------------------------
  chi0(G,G') at the    1 th omega   0.0000   0.0000 [eV]
       1       2       3       4       5       6       7       8       9
    1 -69.087  64.454  64.454 -51.819 -51.819  34.532  34.532 -16.892 -16.892
        0.000   0.000  -0.000  -0.000  -0.000   0.000  -0.000  -0.000  -0.000
 
    2  64.454 -70.148 -51.046  66.371  33.604 -53.962 -16.442  36.131   3.114
       -0.000   0.000   0.000   0.000  -0.000  -0.000   0.000   0.000  -0.000
 
  chi0(G,G') at the    2 th omega   0.0000  16.7000 [eV]
       1       2       3       4       5       6       7       8       9
    1 -32.011  29.632  29.632 -23.179 -23.179  14.458  14.458  -5.767  -5.767
        0.000   0.000  -0.000  -0.000  -0.000   0.000  -0.000  -0.000  -0.000
 
    2  29.632 -32.584 -22.779  30.676  14.004 -24.351  -5.598  15.328  -0.603
       -0.000   0.000   0.000   0.000  -0.000  -0.000   0.000   0.000  -0.000
 
  Average fulfillment of the sum rule on Im[epsilon] for q-point   16 :     75.26  [%]
 
================================================================================
== DATASET  4 ==================================================================
-   mpi_nproc: 96, omp_nthreads: -1 (-1 if OMP is not activated)
 

--- !DatasetInfo
iteration_state: {dtset: 4, }
dimensions: {natom: 32, nkpt: 16, mband: 1314, nsppol: 1, nspinor: 1, nspden: 1, mpw: 97062, }
cutoff_energies: {ecut:  50.0, pawecutdg:  -1.0, }
electrons: {nelect:   1.52000000E+02, charge:   0.00000000E+00, occopt:   1.00000000E+00, tsmear:   1.00000000E-02, }
meta: {optdriver: 4, gwcalctyp: 0, }
...

 mkfilename : getwfk/=0, take file _WFK from output of DATASET   2.
 
 mkfilename : getscr/=0, take file _SCR from output of DATASET   3.
 
 SIGMA: Calculation of the GW corrections 
 
 Based on a program developped by R.W. Godby, V. Olevano, G. Onida, and L. Reining.
 Incorporated in ABINIT by V. Olevano, G.-M. Rignanese, and M. Torrent.
.Using single precision arithmetic ; gwpc =  4
 
 Real(R)+Recip(G) space primitive vectors, cartesian coordinates (Bohr,Bohr^-1):
 R(1)=  8.2242179  0.0000000  0.0000000  G(1)=  0.1215921  0.0000000  0.0000000
 R(2)=  0.0000000  8.5842826  0.0000000  G(2)=  0.0000000  0.1164920  0.0000000
 R(3)=  0.0000000  0.0000000 81.2582237  G(3)=  0.0000000  0.0000000  0.0123064
 Unit cell volume ucvol=  5.7367502E+03 bohr^3
 Angles (23,13,12)=  9.00000000E+01  9.00000000E+01  9.00000000E+01 degrees
--------------------------------------------------------------------------------
 
 ==== K-mesh for the wavefunctions ====
 Number of points in the irreducible wedge :    16
 Reduced coordinates and weights : 
 
     1)     0.00000000E+00  0.00000000E+00  0.00000000E+00       0.02778
     2)     1.66666667E-01  0.00000000E+00  0.00000000E+00       0.05556
     3)     3.33333333E-01  0.00000000E+00  0.00000000E+00       0.05556
     4)     5.00000000E-01  0.00000000E+00  0.00000000E+00       0.02778
     5)     0.00000000E+00  1.66666667E-01  0.00000000E+00       0.05556
     6)     1.66666667E-01  1.66666667E-01  0.00000000E+00       0.11111
     7)     3.33333333E-01  1.66666667E-01  0.00000000E+00       0.11111
     8)     5.00000000E-01  1.66666667E-01  0.00000000E+00       0.05556
     9)     0.00000000E+00  3.33333333E-01  0.00000000E+00       0.05556
    10)     1.66666667E-01  3.33333333E-01  0.00000000E+00       0.11111
    11)     3.33333333E-01  3.33333333E-01  0.00000000E+00       0.11111
    12)     5.00000000E-01  3.33333333E-01  0.00000000E+00       0.05556
    13)     0.00000000E+00  5.00000000E-01  0.00000000E+00       0.02778
    14)     1.66666667E-01  5.00000000E-01  0.00000000E+00       0.05556
    15)     3.33333333E-01  5.00000000E-01  0.00000000E+00       0.05556
    16)     5.00000000E-01  5.00000000E-01  0.00000000E+00       0.02778
 
 Together with  8 symmetry operations and time-reversal symmetry 
 yields    36 points in the full Brillouin Zone.
 
 
 ==== Q-mesh for screening function ====
 Number of points in the irreducible wedge :    16
 Reduced coordinates and weights : 
 
     1)     0.00000000E+00  0.00000000E+00  0.00000000E+00       0.02778
     2)     1.66666667E-01  0.00000000E+00  0.00000000E+00       0.05556
     3)     3.33333333E-01  0.00000000E+00  0.00000000E+00       0.05556
     4)     5.00000000E-01  0.00000000E+00  0.00000000E+00       0.02778
     5)     0.00000000E+00  1.66666667E-01  0.00000000E+00       0.05556
     6)     1.66666667E-01  1.66666667E-01  0.00000000E+00       0.11111
     7)     3.33333333E-01  1.66666667E-01  0.00000000E+00       0.11111
     8)     5.00000000E-01  1.66666667E-01  0.00000000E+00       0.05556
     9)     0.00000000E+00  3.33333333E-01  0.00000000E+00       0.05556
    10)     1.66666667E-01  3.33333333E-01  0.00000000E+00       0.11111
    11)     3.33333333E-01  3.33333333E-01  0.00000000E+00       0.11111
    12)     5.00000000E-01  3.33333333E-01  0.00000000E+00       0.05556
    13)     0.00000000E+00  5.00000000E-01  0.00000000E+00       0.02778
    14)     1.66666667E-01  5.00000000E-01  0.00000000E+00       0.05556
    15)     3.33333333E-01  5.00000000E-01  0.00000000E+00       0.05556
    16)     5.00000000E-01  5.00000000E-01  0.00000000E+00       0.02778
 
 Together with  8 symmetry operations and time-reversal symmetry 
 yields    36 points in the full Brillouin Zone.
 
 
 setmesh: FFT mesh size selected  =    48x   48x  450
          total number of points  =      1036800
 
 Number of electrons calculated from density =  152.0000; Expected =  152.0000
 average of density, n =  0.026496
 r_s =    2.0809
 omega_plasma =   15.7016 [eV]
 
 
 === KS Band Gaps ===
  >>>> For spin  1
   Minimum direct gap =   4.4475 [eV], located at k-point      :   0.0000  0.0000  0.0000
   Fundamental gap    =   4.4475 [eV], Top of valence bands at :   0.0000  0.0000  0.0000
                                       Bottom of conduction at :   0.0000  0.0000  0.0000
 SIGMA fundamental parameters:
 PLASMON POLE MODEL  1
 number of plane-waves for SigmaX                34343
 number of plane-waves for SigmaC and W           3021
 number of plane-waves for wavefunctions         96783
 number of bands                                  1314
 number of independent spin polarizations            1
 number of spinorial components                      1
 number of k-points in IBZ                          16
 number of q-points in IBZ                          16
 number of symmetry operations                       8
 number of k-points in BZ                           36
 number of q-points in BZ                           36
 number of frequencies for dSigma/dE                 9
 frequency step for dSigma/dE [eV]                0.25
 number of omega for Sigma on real axis              0
 max omega for Sigma on real axis  [eV]           0.00
 zcut for avoiding poles [eV]                     0.10
 
 EPSILON^-1 parameters (SCR file):
 dimension of the eps^-1 matrix on file           3021
 dimension of the eps^-1 matrix used              3021
 number of plane-waves for wavefunctions         96783
 number of bands                                   876
 number of q-points in IBZ                          16
 number of frequencies                               2
 number of real frequencies                          1
 number of imag frequencies                          1
 
 matrix elements of self-energy operator (all in [eV])
 
 Perturbative Calculation

--- !SelfEnergy_ee
iteration_state: {dtset: 4, }
kpoint     : [   0.000,    0.000,    0.000, ]
spin       : 1
KS_gap     :    4.447
QP_gap     :    7.949
Delta_QP_KS:    3.502
data: !SigmaeeData |
     Band     E0 <VxcDFT>   SigX SigC(E0)      Z dSigC/dE  Sig(E)    E-E0       E
       74  -5.256 -17.864 -21.960   2.146   0.834  -0.199 -19.490  -1.626  -6.882
[...]
                       0.000000  0.000000  0.000000  0.000000  0.000000  0.000000
                       0.000000  0.000000  0.000000  0.000000  0.000000  0.000000
                       0.000000  0.000000  0.000000  0.000000  0.000000  0.000000
                       0.000000  0.000000  0.000000  0.000000  0.000000  0.000000
                       0.000000  0.000000  0.000000  0.000000  0.000000  0.000000
                       0.000000  0.000000  0.000000  0.000000  0.000000  0.000000
                       0.000000  0.000000  0.000000  0.000000  0.000000  0.000000
                       0.000000  0.000000  0.000000  0.000000  0.000000  0.000000
                       0.000000  0.000000  0.000000  0.000000  0.000000  0.000000
                       0.000000  0.000000  0.000000  0.000000  0.000000  0.000000
                       0.000000  0.000000  0.000000  0.000000  0.000000  0.000000
                       0.000000  0.000000  0.000000  0.000000  0.000000  0.000000
                       0.000000  0.000000  0.000000  0.000000  0.000000  0.000000
                       0.000000  0.000000  0.000000  0.000000  0.000000  0.000000
                       0.000000  0.000000  0.000000  0.000000  0.000000  0.000000
                       0.000000  0.000000  0.000000  0.000000  0.000000  0.000000
                       0.000000  0.000000  0.000000  0.000000  0.000000  0.000000
                       0.000000  0.000000  0.000000  0.000000  0.000000  0.000000
                       0.000000  0.000000  0.000000  0.000000  0.000000  0.000000
                       0.000000  0.000000  0.000000  0.000000  0.000000  0.000000
                       0.000000  0.000000  0.000000  0.000000  0.000000  0.000000
                       0.000000  0.000000  0.000000  0.000000  0.000000  0.000000
                       0.000000  0.000000  0.000000  0.000000  0.000000  0.000000
                       0.000000  0.000000  0.000000  0.000000  0.000000  0.000000
                       0.000000  0.000000  0.000000  0.000000  0.000000  0.000000
                       0.000000  0.000000  0.000000  0.000000  0.000000  0.000000
                       0.000000  0.000000  0.000000  0.000000  0.000000  0.000000
                       0.000000  0.000000  0.000000  0.000000  0.000000  0.000000
                       0.000000  0.000000  0.000000  0.000000  0.000000  0.000000
                       0.000000  0.000000  0.000000  0.000000  0.000000  0.000000
                       0.000000  0.000000  0.000000  0.000000  0.000000  0.000000
                       0.000000  0.000000  0.000000  0.000000  0.000000  0.000000
                       0.000000  0.000000  0.000000  0.000000  0.000000  0.000000
                       0.000000  0.000000  0.000000  0.000000  0.000000  0.000000
                       0.000000  0.000000  0.000000  0.000000  0.000000  0.000000
                       0.000000  0.000000  0.000000  0.000000  0.000000  0.000000
                       0.000000  0.000000  0.000000  0.000000  0.000000  0.000000
                       0.000000  0.000000  0.000000  0.000000  0.000000  0.000000
                       0.000000  0.000000  0.000000  0.000000  0.000000  0.000000
                       0.000000  0.000000  0.000000  0.000000  0.000000  0.000000
                       0.000000  0.000000  0.000000  0.000000  0.000000  0.000000
                       0.000000  0.000000  0.000000  0.000000  0.000000  0.000000
                       0.000000  0.000000  0.000000  0.000000  0.000000  0.000000
                       0.000000  0.000000  0.000000  0.000000  0.000000  0.000000
                       0.000000  0.000000  0.000000  0.000000  0.000000  0.000000
                       0.000000  0.000000  0.000000  0.000000  0.000000  0.000000
                       0.000000  0.000000  0.000000  0.000000  0.000000  0.000000
                       0.000000  0.000000  0.000000  0.000000  0.000000  0.000000
                       0.000000  0.000000  0.000000  0.000000  0.000000  0.000000
                       0.000000  0.000000  0.000000  0.000000  0.000000  0.000000
                       0.000000  0.000000  0.000000  0.000000  0.000000  0.000000
                       0.000000  0.000000  0.000000  0.000000  0.000000  0.000000
                       0.000000  0.000000  0.000000  0.000000  0.000000  0.000000
                       0.000000  0.000000  0.000000  0.000000  0.000000  0.000000
                       0.000000  0.000000  0.000000  0.000000  0.000000  0.000000
                       0.000000  0.000000  0.000000  0.000000  0.000000  0.000000
                       0.000000  0.000000  0.000000  0.000000  0.000000  0.000000
                       0.000000  0.000000  0.000000  0.000000  0.000000  0.000000
                       0.000000  0.000000  0.000000  0.000000  0.000000  0.000000
                       0.000000  0.000000  0.000000  0.000000  0.000000  0.000000
        optdriver3          3
        optdriver4          4
           ppmfrq3     6.13713734E-01 Hartree
           ppmfrq4     0.00000000E+00 Hartree
          spgroup          57
           strten3     0.0000000000E+00  0.0000000000E+00  0.0000000000E+00
                       0.0000000000E+00  0.0000000000E+00  0.0000000000E+00
           strten4     0.0000000000E+00  0.0000000000E+00  0.0000000000E+00
                       0.0000000000E+00  0.0000000000E+00  0.0000000000E+00
           symrel      1  0  0   0  1  0   0  0  1      -1  0  0   0 -1  0   0  0 -1
                      -1  0  0   0  1  0   0  0 -1       1  0  0   0 -1  0   0  0  1
                      -1  0  0   0 -1  0   0  0  1       1  0  0   0  1  0   0  0 -1
                       1  0  0   0 -1  0   0  0 -1      -1  0  0   0  1  0   0  0  1
            tnons      0.0000000  0.0000000  0.0000000    -0.0000000  0.0000000  0.0000000
                       0.5000000  0.5000000  0.0000000     0.5000000  0.5000000  0.0000000
                      -0.0000000  0.5000000  0.0000000     0.0000000  0.5000000  0.0000000
                       0.5000000  0.0000000  0.0000000     0.5000000  0.0000000  0.0000000
           toldfe      1.00000000E-08 Hartree
           tolsym      1.00000000E-04
            typat      1  1  1  1  1  1  1  1  1  1  1  1  1  1  1  1  1  1  1  1
                       1  1  1  1  2  2  2  2  2  2  2  2
          usekden           1
          vcutgeo      1.0000000  1.0000000  0.0000000
              wtk        0.02778    0.05556    0.05556    0.02778    0.05556    0.11111
                         0.11111    0.05556    0.05556    0.11111    0.11111    0.05556
                         0.02778    0.05556    0.05556    0.02778
           xangst      1.8802722574E+00  1.8443813900E+00  1.8447230489E+01
                       2.4717963972E+00  2.6982252952E+00  2.4552769511E+01
                       4.0563065847E+00  2.6982252952E+00  2.4552769511E+01
                       2.9576206984E-01  1.8443813900E+00  1.8447230489E+01
                       2.9576206984E-01  4.1156847326E+00  2.4552769511E+01
                       4.0563065847E+00  4.2692195258E-01  1.8447230489E+01
                       2.4717963972E+00  4.2692195258E-01  1.8447230489E+01
                       1.8802722574E+00  4.1156847326E+00  2.4552769511E+01
                       1.9067521508E+00  1.8947717124E+00  2.0873700219E+01
                       2.4453165038E+00  2.6478349728E+00  2.2126299781E+01
                       4.0827864781E+00  2.6478349728E+00  2.2126299781E+01
                       2.6928217646E-01  1.8947717124E+00  2.0873700219E+01
                       2.6928217646E-01  4.1660750550E+00  2.2126299781E+01
                       4.0827864781E+00  3.7653163020E-01  2.0873700219E+01
                       2.4453165038E+00  3.7653163020E-01  2.0873700219E+01
                       1.9067521508E+00  4.1660750550E+00  2.2126299781E+01
                       1.8977225185E+00  1.8760712064E+00  2.3382644152E+01
                       2.4543461361E+00  2.6665354788E+00  1.9617355848E+01
                       4.0737568458E+00  2.6665354788E+00  1.9617355848E+01
                       2.7831180877E-01  1.8760712064E+00  2.3382644152E+01
                       2.7831180877E-01  4.1473745490E+00  1.9617355848E+01
                       4.0737568458E+00  3.9523213622E-01  2.3382644152E+01
                       2.4543461361E+00  3.9523213622E-01  2.3382644152E+01
                       1.8977225185E+00  4.1473745490E+00  1.9617355848E+01
                      -2.7471125494E-03  4.5136284213E+00  1.7210367942E+01
                       4.3548157671E+00  2.8978263889E-02  2.5789632058E+01
                       2.1732872148E+00  2.8978263889E-02  2.5789632058E+01
                       2.1787814398E+00  4.5136284213E+00  1.7210367942E+01
                       2.1787814398E+00  2.2423250787E+00  2.5789632058E+01
                       2.1732872148E+00  2.3002816065E+00  1.7210367942E+01
                       4.3548157671E+00  2.3002816065E+00  1.7210367942E+01
                      -2.7471125494E-03  2.2423250787E+00  2.5789632058E+01
            xcart      3.5531996217E+00  3.4853757117E+00  3.4860213535E+01
                       4.6710182469E+00  5.0989068527E+00  4.6398010179E+01
                       7.6653085561E+00  5.0989068527E+00  4.6398010179E+01
                       5.5890931249E-01  3.4853757117E+00  3.4860213535E+01
                       5.5890931249E-01  7.7775169939E+00  4.6398010179E+01
                       7.6653085561E+00  8.0676557049E-01  3.4860213535E+01
                       4.6710182469E+00  8.0676557049E-01  3.4860213535E+01
                       3.5531996217E+00  7.7775169939E+00  4.6398010179E+01
                       3.6032393682E+00  3.5805996208E+00  3.9445576794E+01
                       4.6209785004E+00  5.0036829436E+00  4.1812646920E+01
                       7.7153483026E+00  5.0036829436E+00  4.1812646920E+01
                       5.0886956598E-01  3.5805996208E+00  3.9445576794E+01
                       5.0886956598E-01  7.8727409030E+00  4.1812646920E+01
                       7.7153483026E+00  7.1154166145E-01  3.9445576794E+01
                       4.6209785004E+00  7.1154166145E-01  3.9445576794E+01
                       3.6032393682E+00  7.8727409030E+00  4.1812646920E+01
                       3.5861758361E+00  3.5452607858E+00  4.4186793709E+01
                       4.6380420325E+00  5.0390217786E+00  3.7071430005E+01
                       7.6982847705E+00  5.0390217786E+00  3.7071430005E+01
                       5.2593309813E-01  3.5452607858E+00  4.4186793709E+01
                       5.2593309813E-01  7.8374020680E+00  3.7071430005E+01
                       7.6982847705E+00  7.4688049637E-01  4.4186793709E+01
                       4.6380420325E+00  7.4688049637E-01  4.4186793709E+01
                       3.5861758361E+00  7.8374020680E+00  3.7071430005E+01
                      -5.1912903747E-03  8.5295215818E+00  3.2522882056E+01
                       8.2294091590E+00  5.4760982556E-02  4.8735341658E+01
                       4.1069176440E+00  5.4760982556E-02  4.8735341658E+01
                       4.1173002246E+00  8.5295215818E+00  3.2522882056E+01
                       4.1173002246E+00  4.2373802996E+00  4.8735341658E+01
                       4.1069176440E+00  4.3469022648E+00  3.2522882056E+01
                       8.2294091590E+00  4.3469022648E+00  3.2522882056E+01
                      -5.1912903747E-03  4.2373802996E+00  4.8735341658E+01
             xred      4.3204103763E-01  4.0601828814E-01  4.2900536022E-01
                       5.6795896235E-01  5.9398171186E-01  5.7099463978E-01
                       9.3204103763E-01  5.9398171186E-01  5.7099463978E-01
                       6.7958962349E-02  4.0601828814E-01  4.2900536022E-01
                       6.7958962349E-02  9.0601828814E-01  5.7099463978E-01
                       9.3204103763E-01  9.3981711860E-02  4.2900536022E-01
                       5.6795896235E-01  9.3981711860E-02  4.2900536022E-01
                       4.3204103763E-01  9.0601828814E-01  5.7099463978E-01
                       4.3812547597E-01  4.1711110904E-01  4.8543488882E-01
                       5.6187452401E-01  5.8288889096E-01  5.1456511118E-01
                       9.3812547597E-01  5.8288889096E-01  5.1456511118E-01
                       6.1874524009E-02  4.1711110904E-01  4.8543488882E-01
                       6.1874524009E-02  9.1711110904E-01  5.1456511118E-01
                       9.3812547597E-01  8.2888890960E-02  4.8543488882E-01
                       5.6187452401E-01  8.2888890960E-02  4.8543488882E-01
                       4.3812547597E-01  9.1711110904E-01  5.1456511118E-01
                       4.3605068510E-01  4.1299441849E-01  5.4378242213E-01
                       5.6394931488E-01  5.8700558151E-01  4.5621757787E-01
                       9.3605068510E-01  5.8700558151E-01  4.5621757787E-01
                       6.3949314879E-02  4.1299441849E-01  5.4378242213E-01
                       6.3949314879E-02  9.1299441849E-01  4.5621757787E-01
                       9.3605068510E-01  8.7005581511E-02  5.4378242213E-01
                       5.6394931488E-01  8.7005581511E-02  5.4378242213E-01
                       4.3605068510E-01  9.1299441849E-01  4.5621757787E-01
                      -6.3121994790E-04  9.9362078518E-01  4.0024111492E-01
                       1.0006312199E+00  6.3792148203E-03  5.9975888508E-01
                       4.9936878005E-01  6.3792148203E-03  5.9975888508E-01
                       5.0063121993E-01  9.9362078518E-01  4.0024111492E-01
                       5.0063121993E-01  4.9362078518E-01  5.9975888508E-01
                       4.9936878005E-01  5.0637921482E-01  4.0024111492E-01
                       1.0006312199E+00  5.0637921482E-01  4.0024111492E-01
                      -6.3121994790E-04  4.9362078518E-01  5.9975888508E-01
            znucl        6.00000    9.00000
 
================================================================================


- Timing analysis has been suppressed with timopt=0



================================================================================

 Suggested references for the acknowledgment of ABINIT usage.

 The users of ABINIT have little formal obligations with respect to the ABINIT group
 (those specified in the GNU General Public License, http://www.gnu.org/copyleft/gpl.txt).
 However, it is common practice in the scientific literature,
 to acknowledge the efforts of people that have made the research possible.
 In this spirit, please find below suggested citations of work written by ABINIT developers,
 corresponding to implementations inside of ABINIT that you have used in the present run.
 Note also that it will be of great value to readers of publications presenting these results,
 to read papers enabling them to understand the theoretical formalism and details
 of the ABINIT implementation.
 For information on why they are suggested, see also https://docs.abinit.org/theory/acknowledgments.
-
- [1] Libxc: A library of exchange and correlation functionals for density functional theory.
- M.A.L. Marques, M.J.T. Oliveira, T. Burnus, Computer Physics Communications 183, 2227 (2012).
- Comment: to be cited when LibXC is used (negative value of ixc)
- Strong suggestion to cite this paper.
- DOI and bibtex: see https://docs.abinit.org/theory/bibliography/#marques2012
-
- [2] The Abinit project: Impact, environment and recent developments.
- Computer Phys. Comm. 248, 107042 (2020).
- X.Gonze, B. Amadon, G. Antonius, F.Arnardi, L.Baguet, J.-M.Beuken,
- J.Bieder, F.Bottin, J.Bouchet, E.Bousquet, N.Brouwer, F.Bruneval,
- G.Brunin, T.Cavignac, J.-B. Charraud, Wei Chen, M.Cote, S.Cottenier,
- J.Denier, G.Geneste, Ph.Ghosez, M.Giantomassi, Y.Gillet, O.Gingras,
- D.R.Hamann, G.Hautier, Xu He, N.Helbig, N.Holzwarth, Y.Jia, F.Jollet,
- W.Lafargue-Dit-Hauret, K.Lejaeghere, M.A.L.Marques, A.Martin, C.Martins,
- H.P.C. Miranda, F.Naccarato, K. Persson, G.Petretto, V.Planes, Y.Pouillon,
- S.Prokhorenko, F.Ricci, G.-M.Rignanese, A.H.Romero, M.M.Schmitt, M.Torrent,
- M.J.van Setten, B.Van Troeye, M.J.Verstraete, G.Zerah and J.W.Zwanzig
- Comment: the fifth generic paper describing the ABINIT project.
- Note that a version of this paper, that is not formatted for Computer Phys. Comm. 
- is available at https://www.abinit.org/sites/default/files/ABINIT20.pdf .
- The licence allows the authors to put it on the Web.
- DOI and bibtex: see https://docs.abinit.org/theory/bibliography/#gonze2020
-
- [3] ABINIT: Overview, and focus on selected capabilities
- J. Chem. Phys. 152, 124102 (2020).
- A. Romero, D.C. Allan, B. Amadon, G. Antonius, T. Applencourt, L.Baguet,
- J.Bieder, F.Bottin, J.Bouchet, E.Bousquet, F.Bruneval,
- G.Brunin, D.Caliste, M.Cote,
- J.Denier, C. Dreyer, Ph.Ghosez, M.Giantomassi, Y.Gillet, O.Gingras,
- D.R.Hamann, G.Hautier, F.Jollet, G. Jomard,
- A.Martin, 
- H.P.C. Miranda, F.Naccarato, G.Petretto, N.A. Pike, V.Planes,
- S.Prokhorenko, T. Rangel, F.Ricci, G.-M.Rignanese, M.Royo, M.Stengel, M.Torrent,
- M.J.van Setten, B.Van Troeye, M.J.Verstraete, J.Wiktor, J.W.Zwanziger, and X.Gonze.
- Comment: a global overview of ABINIT, with focus on selected capabilities .
- Note that a version of this paper, that is not formatted for J. Chem. Phys 
- is available at https://www.abinit.org/sites/default/files/ABINIT20_JPC.pdf .
- The licence allows the authors to put it on the Web.
- DOI and bibtex: see https://docs.abinit.org/theory/bibliography/#romero2020
-
- [4] Recent developments in the ABINIT software package.
- Computer Phys. Comm. 205, 106 (2016).
- X.Gonze, F.Jollet, F.Abreu Araujo, D.Adams, B.Amadon, T.Applencourt,
- C.Audouze, J.-M.Beuken, J.Bieder, A.Bokhanchuk, E.Bousquet, F.Bruneval
- D.Caliste, M.Cote, F.Dahm, F.Da Pieve, M.Delaveau, M.Di Gennaro,
- B.Dorado, C.Espejo, G.Geneste, L.Genovese, A.Gerossier, M.Giantomassi,
- Y.Gillet, D.R.Hamann, L.He, G.Jomard, J.Laflamme Janssen, S.Le Roux,
- A.Levitt, A.Lherbier, F.Liu, I.Lukacevic, A.Martin, C.Martins,
- M.J.T.Oliveira, S.Ponce, Y.Pouillon, T.Rangel, G.-M.Rignanese,
- A.H.Romero, B.Rousseau, O.Rubel, A.A.Shukri, M.Stankovski, M.Torrent,
- M.J.Van Setten, B.Van Troeye, M.J.Verstraete, D.Waroquier, J.Wiktor,
- B.Xu, A.Zhou, J.W.Zwanziger.
- Comment: the fourth generic paper describing the ABINIT project.
- Note that a version of this paper, that is not formatted for Computer Phys. Comm. 
- is available at https://www.abinit.org/sites/default/files/ABINIT16.pdf .
- The licence allows the authors to put it on the Web.
- DOI and bibtex: see https://docs.abinit.org/theory/bibliography/#gonze2016
-
- And optionally:
-
- [5] ABINIT: First-principles approach of materials and nanosystem properties.
- Computer Phys. Comm. 180, 2582-2615 (2009).
- X. Gonze, B. Amadon, P.-M. Anglade, J.-M. Beuken, F. Bottin, P. Boulanger, F. Bruneval,
- D. Caliste, R. Caracas, M. Cote, T. Deutsch, L. Genovese, Ph. Ghosez, M. Giantomassi
- S. Goedecker, D.R. Hamann, P. Hermet, F. Jollet, G. Jomard, S. Leroux, M. Mancini, S. Mazevet,
- M.J.T. Oliveira, G. Onida, Y. Pouillon, T. Rangel, G.-M. Rignanese, D. Sangalli, R. Shaltaf,
- M. Torrent, M.J. Verstraete, G. Zerah, J.W. Zwanziger
- Comment: the third generic paper describing the ABINIT project.
- Note that a version of this paper, that is not formatted for Computer Phys. Comm. 
- is available at https://www.abinit.org/sites/default/files/ABINIT_CPC_v10.pdf .
- The licence allows the authors to put it on the Web.
- DOI and bibtex: see https://docs.abinit.org/theory/bibliography/#gonze2009
-
- Proc.   0 individual time (sec): cpu=      16257.7  wall=      16424.7
 
================================================================================
 
 Calculation completed.
.Delivered   0 WARNINGs and   2 COMMENTs to log file.
+Overall time at end (sec) : cpu=    1562654.3  wall=    1576745.8
