
.Version 9.7.2 of ABINIT 
.(MPI version, prepared for a x86_64_linux_gnu10.3 computer) 

.Copyright (C) 1998-2021 ABINIT group . 
 ABINIT comes with ABSOLUTELY NO WARRANTY.
 It is free software, and you are welcome to redistribute it
 under certain conditions (GNU General Public License,
 see ~abinit/COPYING or http://www.gnu.org/copyleft/gpl.txt).

 ABINIT is a project of the Universite Catholique de Louvain,
 Corning Inc. and other collaborators, see ~abinit/doc/developers/contributors.txt .
 Please read https://docs.abinit.org/theory/acknowledgments for suggested
 acknowledgments of the ABINIT effort.
 For more information, see https://www.abinit.org .

.Starting date : Tue 22 Mar 2022.
- ( at 17h22 )
  
- input  file    -> ./4F-2110_gw.abi
- output file    -> 4F-2110_gw.abo
- root for input  files -> 4F-2110_gw_i
- root for output files -> 4F-2110_gw_o

 mkfilename : getden/=0, take file _DEN from output of DATASET   1.


 DATASET    2 : space group Pb c m (# 57); Bravais oP (primitive ortho.)
================================================================================
 Values of the parameters that define the memory need for DATASET  2.
     intxc =       0    ionmov =       0      iscf =      -2    lmnmax =       1
     lnmax =       1     mgfft =     576  mpssoang =       2    mqgrid =   27069
     natom =      40  nloc_mem =       1    nspden =       1   nspinor =       1
    nsppol =       1      nsym =       8    n1xccc =       0    ntypat =       2
    occopt =       1   xclevel =       2
-    mband =        2184        mffmem =           1         mkmem =           2
       mpw =        1796          nfft =      466560          nkpt =          16
================================================================================
P This job should need less than                     412.855 Mbytes of memory.
  Rough estimation (10% accuracy) of disk space for files :
_ WF disk file :   3830.533 Mbytes ; DEN or POT disk file :      3.562 Mbytes.
================================================================================

--------------------------------------------------------------------------------
------------- Echo of variables that govern the present computation ------------
--------------------------------------------------------------------------------
-
- outvars: echo of selected default values                                      
-   iomode0 =  0 , fftalg0 =312 , wfoptalg0 =  0
-
- outvars: echo of global parameters not present in the input file              
-  max_nthreads =    0
-
 -outvars: echo values of preprocessed input variables --------
-          iomode           1
            acell      8.1495829326E+00  8.4985343024E+00  8.5037675980E+01 Bohr
              amu      1.20110000E+01  1.89984032E+01
        autoparal           1
           bandpp          52
          chkprim           0
     densfor_pred           6
           diemac      1.20000000E+01
             ecut      5.00000000E+01 Hartree
-          fftalg         312
           getden           1
      gw_icutcoul           2
             iscf          -2
           istwfk        1    0    0    1    0    0    0    0    0    0
                         0    0    1    0    0    1
              ixc     -208012
           jdtset        2
              kpt      0.00000000E+00  0.00000000E+00  0.00000000E+00
                       1.66666667E-01  0.00000000E+00  0.00000000E+00
                       3.33333333E-01  0.00000000E+00  0.00000000E+00
                       5.00000000E-01  0.00000000E+00  0.00000000E+00
                       0.00000000E+00  1.66666667E-01  0.00000000E+00
                       1.66666667E-01  1.66666667E-01  0.00000000E+00
                       3.33333333E-01  1.66666667E-01  0.00000000E+00
                       5.00000000E-01  1.66666667E-01  0.00000000E+00
                       0.00000000E+00  3.33333333E-01  0.00000000E+00
                       1.66666667E-01  3.33333333E-01  0.00000000E+00
                       3.33333333E-01  3.33333333E-01  0.00000000E+00
                       5.00000000E-01  3.33333333E-01  0.00000000E+00
                       0.00000000E+00  5.00000000E-01  0.00000000E+00
                       1.66666667E-01  5.00000000E-01  0.00000000E+00
                       3.33333333E-01  5.00000000E-01  0.00000000E+00
                       5.00000000E-01  5.00000000E-01  0.00000000E+00
         kptrlatt        6    0    0      0    6    0      0    0    1
          kptrlen      4.88974976E+01
P           mkmem           2
            natom          40
            nband        2184
           nbdbuf         273
           ndtset           1
            ngfft          54      60     576
             nkpt          16
-          npband          14
-           npfft           4
-        np_spkpt           9
            nstep         100
             nsym           8
           ntypat           2
           ortalg          -2
        paral_kgb           1
          prtkden           1
          spgroup          57
           symrel      1  0  0   0  1  0   0  0  1      -1  0  0   0 -1  0   0  0 -1
                      -1  0  0   0  1  0   0  0 -1       1  0  0   0 -1  0   0  0  1
                      -1  0  0   0 -1  0   0  0  1       1  0  0   0  1  0   0  0 -1
                       1  0  0   0 -1  0   0  0 -1      -1  0  0   0  1  0   0  0  1
            tnons      0.0000000  0.0000000  0.0000000    -0.0000000  0.0000000  0.0000000
                       0.5000000  0.5000000  0.0000000     0.5000000  0.5000000  0.0000000
                      -0.0000000  0.5000000  0.0000000     0.0000000  0.5000000  0.0000000
                       0.5000000  0.0000000  0.0000000     0.5000000  0.0000000  0.0000000
           tolsym      1.00000000E-04
           tolwfr      1.00000000E-18
            typat      1  1  1  1  1  1  1  1  1  1  1  1  1  1  1  1  1  1  1  1
                       1  1  1  1  1  1  1  1  1  1  1  1  2  2  2  2  2  2  2  2
          usekden           1
          vcutgeo      1.0000000  1.0000000  0.0000000
         wfoptalg         114
              wtk        0.02778    0.05556    0.05556    0.02778    0.05556    0.11111
                         0.11111    0.05556    0.05556    0.11111    0.11111    0.05556
                         0.02778    0.05556    0.05556    0.02778
           xangst      4.0200657419E+00  1.8285246137E+00  1.8189619946E+01
                       2.9250780542E-01  2.6687060456E+00  2.6810380054E+01
                       1.8637789682E+00  2.6687060456E+00  2.6810380054E+01
                       2.4487945791E+00  1.8285246137E+00  1.8189619946E+01
                       2.4487945791E+00  4.0771399433E+00  2.6810380054E+01
                       1.8637789682E+00  4.2009071597E-01  1.8189619946E+01
                       2.9250780542E-01  4.2009071597E-01  1.8189619946E+01
                       4.0200657419E+00  4.0771399433E+00  2.6810380054E+01
                       4.0448461619E+00  1.8749453844E+00  2.0620134630E+01
                       2.6772738547E-01  2.6222852749E+00  2.4379865370E+01
                       1.8885593882E+00  2.6222852749E+00  2.4379865370E+01
                       2.4240141592E+00  1.8749453844E+00  2.0620134630E+01
                       2.4240141592E+00  4.1235607140E+00  2.4379865370E+01
                       1.8885593882E+00  3.7366994524E-01  2.0620134630E+01
                       2.6772738547E-01  3.7366994524E-01  2.0620134630E+01
                       4.0448461619E+00  4.1235607140E+00  2.4379865370E+01
                       4.0437486753E+00  1.8735582678E+00  2.3126592582E+01
                       2.6882487204E-01  2.6236723915E+00  2.1873407418E+01
                       1.8874619016E+00  2.6236723915E+00  2.1873407418E+01
                       2.4251116458E+00  1.8735582678E+00  2.3126592582E+01
                       2.4251116458E+00  4.1221735974E+00  2.1873407418E+01
                       1.8874619016E+00  3.7505706185E-01  2.3126592582E+01
                       2.6882487204E-01  3.7505706185E-01  2.3126592582E+01
                       4.0437486753E+00  4.1221735974E+00  2.1873407418E+01
                       4.0359236766E+00  1.8573310566E+00  2.5635894280E+01
                       2.7664987080E-01  2.6398996027E+00  1.9364105720E+01
                       1.8796369028E+00  2.6398996027E+00  1.9364105720E+01
                       2.4329366445E+00  1.8573310566E+00  2.5635894280E+01
                       2.4329366445E+00  4.1059463862E+00  1.9364105720E+01
                       1.8796369028E+00  3.9128427303E-01  2.5635894280E+01
                       2.7664987080E-01  3.9128427303E-01  2.5635894280E+01
                       4.0359236766E+00  4.1059463862E+00  1.9364105720E+01
                       4.3134588900E+00  2.2175679753E+00  2.8048380942E+01
                      -8.8534263253E-04  2.2796626839E+00  1.6951619058E+01
                       2.1571721163E+00  2.2796626839E+00  1.6951619058E+01
                       2.1554014311E+00  2.2175679753E+00  2.8048380942E+01
                       2.1554014311E+00  4.4661833050E+00  1.6951619058E+01
                       2.1571721163E+00  3.1047354296E-02  2.8048380942E+01
                      -8.8534263253E-04  3.1047354296E-02  2.8048380942E+01
                       4.3134588900E+00  4.4661833050E+00  1.6951619058E+01
            xcart      7.5968232885E+00  3.4554107471E+00  3.4373400159E+01
                       5.5275964397E-01  5.0431235554E+00  5.0664275821E+01
                       3.5220318222E+00  5.0431235554E+00  5.0664275821E+01
                       4.6275511103E+00  3.4554107471E+00  3.4373400159E+01
                       4.6275511103E+00  7.7046778983E+00  5.0664275821E+01
                       3.5220318222E+00  7.9385640416E-01  3.4373400159E+01
                       5.5275964397E-01  7.9385640416E-01  3.4373400159E+01
                       7.5968232885E+00  7.7046778983E+00  5.0664275821E+01
                       7.6436514956E+00  3.5431332906E+00  3.8966407274E+01
                       5.0593143681E-01  4.9554010118E+00  4.6071268706E+01
                       3.5688600293E+00  4.9554010118E+00  4.6071268706E+01
                       4.5807229031E+00  3.5431332906E+00  3.8966407274E+01
                       4.5807229031E+00  7.7924004418E+00  4.6071268706E+01
                       3.5688600293E+00  7.0613386060E-01  3.8966407274E+01
                       5.0593143681E-01  7.0613386060E-01  3.8966407274E+01
                       7.6436514956E+00  7.7924004418E+00  4.6071268706E+01
                       7.6415775466E+00  3.5405120201E+00  4.3702926368E+01
                       5.0800538587E-01  4.9580222823E+00  4.1334749612E+01
                       3.5667860803E+00  4.9580222823E+00  4.1334749612E+01
                       4.5827968522E+00  3.5405120201E+00  4.3702926368E+01
                       4.5827968522E+00  7.7897791713E+00  4.1334749612E+01
                       3.5667860803E+00  7.0875513110E-01  4.3702926368E+01
                       5.0800538587E-01  7.0875513110E-01  4.3702926368E+01
                       7.6415775466E+00  7.7897791713E+00  4.1334749612E+01
                       7.6267904419E+00  3.5098470351E+00  4.8444819360E+01
                       5.2279249051E-01  4.9886872673E+00  3.6592856620E+01
                       3.5519989756E+00  4.9886872673E+00  3.6592856620E+01
                       4.5975839568E+00  3.5098470351E+00  4.8444819360E+01
                       4.5975839568E+00  7.7591141863E+00  3.6592856620E+01
                       3.5519989756E+00  7.3942011613E-01  4.8444819360E+01
                       5.2279249051E-01  7.3942011613E-01  4.8444819360E+01
                       7.6267904419E+00  7.7591141863E+00  3.6592856620E+01
                       8.1512559875E+00  4.1905961544E+00  5.3003758451E+01
                      -1.6730551093E-03  4.3079381480E+00  3.2033917529E+01
                       4.0764645212E+00  4.3079381480E+00  3.2033917529E+01
                       4.0731184112E+00  4.1905961544E+00  5.3003758451E+01
                       4.0731184112E+00  8.4398633056E+00  3.2033917529E+01
                       4.0764645212E+00  5.8670996771E-02  5.3003758451E+01
                      -1.6730551093E-03  5.8670996771E-02  5.3003758451E+01
                       8.1512559875E+00  8.4398633056E+00  3.2033917529E+01
             xred      9.3217325982E-01  4.0658902160E-01  4.0421377658E-01
                       6.7826740159E-02  5.9341097840E-01  5.9578622342E-01
                       4.3217325982E-01  5.9341097840E-01  5.9578622342E-01
                       5.6782674016E-01  4.0658902160E-01  4.0421377658E-01
                       5.6782674016E-01  9.0658902160E-01  5.9578622342E-01
                       4.3217325982E-01  9.3410978400E-02  4.0421377658E-01
                       6.7826740159E-02  9.3410978400E-02  4.0421377658E-01
                       9.3217325982E-01  9.0658902160E-01  5.9578622342E-01
                       9.3791934616E-01  4.1691110073E-01  4.5822521400E-01
                       6.2080653819E-02  5.8308889927E-01  5.4177478600E-01
                       4.3791934616E-01  5.8308889927E-01  5.4177478600E-01
                       5.6208065382E-01  4.1691110073E-01  4.5822521400E-01
                       5.6208065382E-01  9.1691110073E-01  5.4177478600E-01
                       4.3791934616E-01  8.3088899271E-02  4.5822521400E-01
                       6.2080653819E-02  8.3088899271E-02  4.5822521400E-01
                       9.3791934616E-01  9.1691110073E-01  5.4177478600E-01
                       9.3766486086E-01  4.1660266278E-01  5.1392427961E-01
                       6.2335139119E-02  5.8339733722E-01  4.8607572039E-01
                       4.3766486086E-01  5.8339733722E-01  4.8607572039E-01
                       5.6233513912E-01  4.1660266278E-01  5.1392427961E-01
                       5.6233513912E-01  9.1660266278E-01  4.8607572039E-01
                       4.3766486086E-01  8.3397337221E-02  5.1392427961E-01
                       6.2335139119E-02  8.3397337221E-02  5.1392427961E-01
                       9.3766486086E-01  9.1660266278E-01  4.8607572039E-01
                       9.3585039934E-01  4.1299439529E-01  5.6968653955E-01
                       6.4149600640E-02  5.8700560471E-01  4.3031346045E-01
                       4.3585039934E-01  5.8700560471E-01  4.3031346045E-01
                       5.6414960064E-01  4.1299439529E-01  5.6968653955E-01
                       5.6414960064E-01  9.1299439529E-01  4.3031346045E-01
                       4.3585039934E-01  8.7005604710E-02  5.6968653955E-01
                       6.4149600640E-02  8.7005604710E-02  5.6968653955E-01
                       9.3585039934E-01  9.1299439529E-01  4.3031346045E-01
                       1.0002052933E+00  4.9309633936E-01  6.2329735426E-01
                      -2.0529334115E-04  5.0690366064E-01  3.7670264574E-01
                       5.0020529332E-01  5.0690366064E-01  3.7670264574E-01
                       4.9979470666E-01  4.9309633936E-01  6.2329735426E-01
                       4.9979470666E-01  9.9309633936E-01  3.7670264574E-01
                       5.0020529332E-01  6.9036606412E-03  6.2329735426E-01
                      -2.0529334115E-04  6.9036606412E-03  6.2329735426E-01
                       1.0002052933E+00  9.9309633936E-01  3.7670264574E-01
            znucl        6.00000    9.00000

================================================================================

 chkinp: Checking input parameters for consistency, jdtset=   2.

================================================================================
== DATASET  2 ==================================================================
-   mpi_nproc: 504, omp_nthreads: -1 (-1 if OMP is not activated)


--- !DatasetInfo
iteration_state: {dtset: 2, }
dimensions: {natom: 40, nkpt: 16, mband: 2184, nsppol: 1, nspinor: 1, nspden: 1, mpw: 1796, }
cutoff_energies: {ecut:  50.0, pawecutdg:  -1.0, }
electrons: {nelect:   1.84000000E+02, charge:   0.00000000E+00, occopt:   1.00000000E+00, tsmear:   1.00000000E-02, }
meta: {optdriver: 0, ionmov: 0, optcell: 0, iscf: -2, paral_kgb: 1, }
...

 mkfilename : getden/=0, take file _DEN from output of DATASET   1.

 mkfilename : getkden/=0, take file _KDEN from output of DATASET   1.

 Real(R)+Recip(G) space primitive vectors, cartesian coordinates (Bohr,Bohr^-1):
 R(1)=  8.1495829  0.0000000  0.0000000  G(1)=  0.1227057  0.0000000  0.0000000
 R(2)=  0.0000000  8.4985343  0.0000000  G(2)=  0.0000000  0.1176673  0.0000000
 R(3)=  0.0000000  0.0000000 85.0376760  G(3)=  0.0000000  0.0000000  0.0117595
 Unit cell volume ucvol=  5.8896678E+03 bohr^3
 Angles (23,13,12)=  9.00000000E+01  9.00000000E+01  9.00000000E+01 degrees

 getcut: wavevector=  0.0000  0.0000  0.0000  ngfft=  54  60 576
         ecut(hartree)=     50.000   => boxcut(ratio)=   2.08165

--- Pseudopotential description ------------------------------------------------
- pspini: atom type   1  psp file is ../6c.4.hgh
- pspatm: opening atomic psp file    ../6c.4.hgh
- Hartwigsen-Goedecker-Hutter psp for C,  from PRB58, 3641 (1998)
-  6.00000   4.00000     10605                znucl, zion, pspdat
    3    1    1    0      2001   0.00000      pspcod,pspxc,lmax,lloc,mmax,r2well
 rloc=   0.3488300
 cc1 =  -8.5137710; cc2 =   1.2284320; cc3 =   0.0000000; cc4 =   0.0000000
 rrs =   0.3045530; h11s=   9.5228420; h22s=   0.0000000; h33s=   0.0000000
 rrp =   0.2326770; h11p=   0.0000000; h22p=   0.0000000; h33p=   0.0000000
                    k11p=   0.0041040; k22p=   0.0000000; k33p=   0.0000000
-  Local part computed in reciprocal space.

 pspatm : COMMENT -
  the projectors are not normalized,
  so that the KB energies are not consistent with 
  definition in PRB44, 8503 (1991). 
  However, this does not influence the results obtained hereafter.
  pspatm : epsatm=   -0.16969744
         --- l  ekb(1:nproj) -->
             0    0.953587
 pspatm: atomic psp has been read  and splines computed

- pspini: atom type   2  psp file is ../9f.7.hgh
- pspatm: opening atomic psp file    ../9f.7.hgh
- Hartwigsen-Goedecker-Hutter psp for F,  from PRB58, 3641 (1998)
-  9.00000   7.00000     10605                znucl, zion, pspdat
    3    1    1    0      2001   0.00000      pspcod,pspxc,lmax,lloc,mmax,r2well
 rloc=   0.2185250
 cc1 = -21.3073610; cc2 =   3.0728690; cc3 =   0.0000000; cc4 =   0.0000000
 rrs =   0.1955670; h11s=  23.5849420; h22s=   0.0000000; h33s=   0.0000000
 rrp =   0.1742680; h11p=   0.0000000; h22p=   0.0000000; h33p=   0.0000000
                    k11p=   0.0151060; k22p=   0.0000000; k33p=   0.0000000
-  Local part computed in reciprocal space.

 pspatm : COMMENT -
  the projectors are not normalized,
  so that the KB energies are not consistent with 
  definition in PRB44, 8503 (1991). 
  However, this does not influence the results obtained hereafter.
  pspatm : epsatm=    0.11349172
         --- l  ekb(1:nproj) -->
             0    0.625355
 pspatm: atomic psp has been read  and splines computed

--------------------------------------------------------------------------------


================================================================================
 prteigrs : about to open file 4F-2110_gw_o_DS2_EIG
 Non-SCF case, kpt    1 (  0.00000  0.00000  0.00000), residuals and eigenvalues=
  3.41E-29  2.12E-29  3.01E-29  2.26E-29  2.25E-29  2.43E-29  2.30E-29  1.91E-29
  2.35E-29  1.94E-29  2.03E-29  1.48E-29  2.62E-29  1.98E-29  3.03E-29  2.90E-29
  3.42E-29  3.07E-29  2.24E-29  3.47E-29  2.79E-29  2.62E-29  1.97E-29  3.15E-29
  2.19E-29  2.58E-29  1.94E-29  2.18E-29  2.33E-29  2.68E-29  3.35E-29  2.91E-29
  2.60E-29  2.19E-29  2.00E-29  2.10E-29  2.63E-29  2.38E-29  2.53E-29  1.91E-29
  3.06E-29  1.92E-29  1.48E-29  2.63E-29  2.30E-29  2.11E-29  1.60E-29  1.87E-29
  2.71E-29  1.68E-29  2.08E-29  2.03E-29  1.88E-29  2.14E-29  3.21E-29  1.99E-29
  2.20E-29  2.34E-29  2.14E-29  2.03E-29  2.51E-29  2.33E-29  2.57E-29  1.76E-29
  2.01E-29  2.39E-29  1.70E-29  1.91E-29  1.82E-29  2.45E-29  2.74E-29  2.42E-29
  1.88E-29  2.74E-29  2.33E-29  2.69E-29  2.06E-29  2.87E-29  2.60E-29  1.60E-29
  1.75E-29  1.79E-29  2.30E-29  2.03E-29  1.80E-29  1.81E-29  3.63E-29  1.63E-29
  2.24E-29  2.07E-29  1.94E-29  1.89E-29  1.73E-29  1.68E-29  1.95E-29  2.08E-29
  2.08E-29  1.82E-29  1.68E-29  1.92E-29  1.36E-29  1.58E-29  2.05E-29  1.67E-29
  1.40E-29  1.59E-29  1.62E-29  1.29E-29  1.67E-29  1.80E-29  1.46E-29  1.80E-29
  1.60E-29  1.53E-29  1.68E-29  1.37E-29  1.35E-29  1.52E-29  9.84E-30  1.46E-29
  1.56E-29  1.46E-29  1.38E-29  1.45E-29  1.18E-29  1.28E-29  1.38E-29  1.42E-29
  1.69E-29  1.75E-29  1.27E-29  1.82E-29  1.66E-29  1.59E-29  1.18E-29  1.38E-29
  1.38E-29  1.43E-29  1.47E-29  1.32E-29  1.72E-29  1.36E-29  1.39E-29  1.07E-29
  1.66E-29  1.34E-29  1.67E-29  1.57E-29  1.72E-29  1.47E-29  1.39E-29  1.00E-29
  9.74E-30  1.37E-29  1.14E-29  1.29E-29  9.59E-30  1.33E-29  1.46E-29  1.17E-29
  1.31E-29  1.22E-29  1.27E-29  9.79E-30  1.40E-29  1.09E-29  1.25E-29  1.60E-29
  9.30E-30  1.21E-29  1.29E-29  1.30E-29  1.12E-29  1.17E-29  7.05E-30  1.27E-29
  1.03E-29  6.23E-30  1.23E-29  7.90E-30  1.04E-29  1.06E-29  8.37E-30  9.17E-30
  8.58E-30  8.87E-30  1.22E-29  9.16E-30  1.30E-29  1.20E-29  1.20E-29  1.31E-29
  1.21E-29  1.17E-29  7.56E-30  1.20E-29  5.96E-30  8.31E-30  7.62E-30  1.16E-29
  7.43E-30  7.32E-30  8.79E-30  8.46E-30  8.61E-30  1.12E-29  7.11E-30  9.17E-30
  1.04E-29  7.12E-30  1.09E-29  7.21E-30  6.98E-30  9.02E-30  6.31E-30  7.53E-30
  9.16E-30  9.38E-30  6.21E-30  1.13E-29  6.51E-30  6.59E-30  6.67E-30  9.89E-30
  6.78E-30  7.52E-30  7.42E-30  8.45E-30  6.11E-30  6.52E-30  8.16E-30  7.25E-30
  1.19E-29  8.50E-30  8.38E-30  7.72E-30  8.46E-30  7.25E-30  5.15E-30  9.47E-30
  7.30E-30  7.85E-30  1.10E-29  7.57E-30  5.80E-30  7.61E-30  6.53E-30  7.68E-30
  9.52E-30  6.44E-30  6.97E-30  7.43E-30  6.62E-30  6.64E-30  6.54E-30  1.20E-29
  1.18E-29  9.91E-30  6.70E-30  1.08E-29  1.34E-29  1.03E-29  7.50E-30  6.79E-30
  1.04E-29  7.87E-30  7.23E-30  1.05E-29  9.26E-30  7.92E-30  1.19E-29  2.22E-29
  1.30E-29  9.91E-30  9.12E-30  8.97E-30  9.98E-30  5.33E-30  1.41E-29  1.07E-29
  9.67E-30  6.90E-30  8.96E-30  8.19E-30  6.64E-30  8.51E-30  1.42E-29  1.12E-29
  9.70E-30  9.55E-30  9.83E-30  8.51E-30  6.82E-30  1.14E-29  7.93E-30  7.30E-30
  1.01E-29  9.73E-30  1.05E-29  1.21E-29  8.32E-30  5.69E-30  1.09E-29  7.04E-30
  6.94E-30  9.28E-30  7.23E-30  8.45E-30  7.15E-30  7.93E-30  7.88E-30  6.36E-30
  8.25E-30  9.60E-30  5.25E-30  9.96E-30  7.97E-30  7.36E-30  1.29E-29  8.92E-30
  8.33E-30  9.79E-30  6.93E-30  1.03E-29  8.31E-30  1.01E-29  6.67E-30  1.01E-29
  8.05E-30  5.82E-30  7.49E-30  7.35E-30  7.67E-30  6.22E-30  5.29E-30  7.50E-30
  9.01E-30  1.15E-29  7.44E-30  8.25E-30  1.07E-29  1.02E-29  1.02E-29  8.78E-30
  6.42E-30  7.48E-30  5.84E-30  9.10E-30  6.82E-30  6.73E-30  5.82E-30  8.47E-30
  6.38E-30  7.49E-30  7.17E-30  9.88E-30  9.83E-30  7.64E-30  8.53E-30  7.20E-30
  8.16E-30  7.23E-30  6.36E-30  5.44E-30  6.65E-30  6.08E-30  7.18E-30  7.59E-30
  9.35E-30  6.08E-30  9.38E-30  6.83E-30  6.73E-30  9.85E-30  1.01E-29  7.82E-30
  6.40E-30  8.07E-30  7.54E-30  5.09E-30  5.91E-30  6.56E-30  3.62E-30  7.89E-30
  6.51E-30  1.08E-29  1.20E-29  7.50E-30  8.16E-30  8.72E-30  8.82E-30  9.22E-30
  6.67E-30  4.24E-30  6.56E-30  8.18E-30  9.57E-30  6.62E-30  1.09E-29  9.09E-30
  9.26E-30  5.44E-30  1.13E-29  4.83E-30  5.87E-30  7.70E-30  9.55E-30  8.35E-30
  7.15E-30  7.56E-30  6.51E-30  4.54E-30  8.61E-30  3.96E-30  6.66E-30  4.98E-30
  9.99E-30  5.53E-30  4.64E-30  1.00E-29  9.83E-30  7.84E-30  7.00E-30  5.77E-30
  1.04E-29  7.05E-30  9.76E-30  8.45E-30  9.75E-30  6.97E-30  9.36E-30  7.88E-30
  8.31E-30  7.13E-30  6.78E-30  1.11E-29  7.61E-30  5.53E-30  1.07E-29  6.06E-30
  1.07E-29  6.86E-30  6.03E-30  1.08E-29  7.92E-30  4.65E-30  8.12E-30  7.04E-30
  7.88E-30  6.21E-30  9.57E-30  9.31E-30  7.85E-30  5.94E-30  6.36E-30  6.83E-30
  6.61E-30  9.08E-30  6.62E-30  4.85E-30  9.10E-30  7.23E-30  7.30E-30  5.12E-30
  7.34E-30  5.33E-30  8.26E-30  7.24E-30  5.78E-30  8.71E-30  4.65E-30  6.36E-30
  6.32E-30  5.63E-30  5.35E-30  4.95E-30  5.79E-30  4.52E-30  5.06E-30  5.05E-30
  7.63E-30  5.69E-30  1.09E-29  5.71E-30  5.81E-30  4.41E-30  6.62E-30  7.88E-30
  7.87E-30  4.57E-30  6.33E-30  7.73E-30  4.71E-30  8.45E-30  7.84E-30  6.94E-30
  4.62E-30  5.22E-30  3.33E-29  7.98E-30  1.02E-29  5.58E-30  8.66E-30  1.04E-29
  7.74E-30  4.12E-30  7.61E-30  6.14E-30  5.86E-30  5.71E-30  8.31E-30  7.01E-30
  5.82E-30  7.86E-30  6.76E-30  8.50E-30  5.83E-30  1.13E-29  6.80E-30  7.47E-30
  5.73E-30  9.73E-30  7.44E-30  4.18E-30  7.95E-30  5.71E-30  1.04E-29  5.10E-30
  9.28E-30  4.63E-30  5.08E-30  4.88E-30  6.77E-30  3.95E-30  6.69E-30  7.88E-30
  9.48E-30  3.82E-30  1.22E-29  9.58E-30  7.58E-30  6.80E-30  9.22E-30  7.08E-30
  5.23E-30  7.83E-30  5.94E-30  1.01E-29  9.60E-30  8.03E-30  9.72E-30  5.44E-30
  5.58E-30  6.75E-30  8.46E-30  7.38E-30  9.36E-30  6.42E-30  1.06E-29  4.84E-30
  8.69E-30  1.02E-29  8.54E-30  7.85E-30  7.93E-30  3.81E-30  6.60E-30  5.36E-30
  8.97E-30  6.22E-30  8.86E-30  7.50E-30  8.60E-30  6.67E-30  3.40E-30  6.41E-30
  6.83E-30  7.56E-30  6.51E-30  5.14E-30  6.73E-30  6.18E-30  4.05E-30  4.52E-30
  6.60E-30  8.94E-30  6.59E-30  6.50E-30  5.27E-30  6.20E-30  7.05E-30  5.51E-30
  5.89E-30  5.47E-30  4.57E-30  8.32E-30  7.67E-30  5.17E-30  8.47E-30  7.27E-30
  8.53E-30  7.55E-30  6.80E-30  5.49E-30  1.15E-29  7.34E-30  5.71E-30  6.62E-30
  4.56E-30  8.74E-30  3.81E-30  1.00E-29  5.91E-30  8.00E-30  7.44E-30  1.13E-29
  5.10E-30  6.64E-30  9.60E-30  1.17E-29  1.63E-29  4.42E-30  4.30E-30  4.74E-30
  6.95E-30  5.60E-30  7.15E-30  4.96E-30  6.48E-30  5.99E-30  1.01E-29  1.04E-29
  1.34E-29  1.14E-29  6.39E-30  7.10E-30  5.40E-30  6.30E-30  4.42E-30  6.80E-30
  7.53E-30  5.73E-30  4.12E-30  6.80E-30  5.11E-30  6.23E-30  6.00E-30  8.03E-30
  6.94E-30  1.04E-29  7.36E-30  6.05E-30  1.13E-29  9.98E-30  7.97E-30  5.05E-30
  8.14E-30  7.05E-30  8.39E-30  7.06E-30  1.23E-29  8.87E-30  7.57E-30  1.35E-29
  8.78E-30  1.83E-29  5.37E-30  4.21E-30  5.96E-30  6.91E-30  8.62E-30  7.03E-30
  5.44E-30  6.42E-30  8.14E-30  6.08E-30  1.45E-29  1.33E-29  7.80E-30  6.20E-30
  7.78E-30  1.24E-29  7.67E-30  7.43E-30  1.52E-29  5.61E-30  6.66E-30  9.81E-30
  7.18E-30  7.36E-30  6.75E-30  1.01E-29  7.59E-30  1.60E-29  1.42E-29  1.14E-29
  9.40E-30  8.10E-30  8.53E-30  1.49E-29  1.00E-29  8.35E-30  7.20E-30  6.27E-30
  1.04E-29  1.05E-29  1.15E-29  8.23E-30  7.64E-30  9.70E-30  4.94E-30  1.40E-29
  1.37E-29  4.63E-30  6.49E-30  1.18E-29  1.14E-29  6.80E-30  8.56E-30  9.27E-30
  1.04E-29  1.06E-29  6.48E-30  8.39E-30  9.93E-30  1.18E-29  1.25E-29  1.08E-29
  5.67E-30  7.45E-30  6.39E-30  7.19E-30  5.53E-30  6.15E-30  5.34E-30  7.44E-30
  5.31E-30  6.31E-30  4.79E-30  5.67E-30  5.45E-30  6.17E-30  5.00E-30  6.11E-30
  5.20E-30  6.10E-30  6.28E-30  6.35E-30  6.08E-30  7.40E-30  5.96E-30  5.64E-30
  6.68E-30  5.62E-30  5.58E-30  7.06E-30  6.62E-30  6.04E-30  6.82E-30  6.05E-30
  5.71E-30  5.92E-30  6.37E-30  5.78E-30  6.63E-30  5.70E-30  5.15E-30  5.96E-30
  4.95E-30  6.33E-30  5.34E-30  5.61E-30  6.70E-30  6.84E-30  5.98E-30  5.27E-30
  5.56E-30  6.11E-30  6.26E-30  6.54E-30  5.14E-30  4.17E-30  4.50E-30  5.21E-30
  5.91E-30  5.07E-30  1.21E-29  6.71E-30  5.72E-30  5.62E-30  5.20E-30  6.08E-30
  5.56E-30  3.88E-30  4.52E-30  5.17E-30  4.97E-30  5.35E-30  3.32E-30  5.73E-30
  5.72E-30  5.93E-30  5.92E-30  1.02E-29  5.46E-30  4.91E-30  3.85E-30  5.83E-30
  4.42E-30  4.30E-30  6.31E-30  3.79E-30  4.91E-30  5.94E-30  6.04E-30  5.66E-30
  6.03E-30  4.66E-30  6.31E-30  5.71E-30  5.57E-30  6.18E-30  1.09E-29  3.48E-30
  7.26E-30  5.37E-30  5.89E-30  4.93E-30  5.61E-30  4.33E-30  6.25E-30  5.89E-30
  4.43E-30  5.00E-30  5.62E-30  5.18E-30  4.02E-30  5.18E-30  5.12E-30  7.89E-30
  5.52E-30  5.44E-30  4.49E-30  4.70E-30  6.26E-30  1.30E-29  6.79E-30  4.93E-30
  5.08E-30  3.91E-30  4.87E-30  4.59E-30  4.14E-30  5.56E-30  3.20E-30  4.28E-30
  6.35E-30  9.18E-30  3.68E-30  4.74E-30  3.85E-30  5.46E-30  3.75E-30  5.10E-30
  1.16E-29  5.93E-30  3.55E-30  5.59E-30  6.06E-30  1.14E-29  1.10E-29  1.19E-29
  6.37E-30  6.93E-30  5.70E-30  3.66E-30  3.27E-30  3.45E-30  4.82E-30  2.85E-30
  4.75E-30  4.57E-30  3.68E-30  5.16E-30  5.12E-30  3.93E-30  5.94E-30  3.71E-30
  8.16E-30  3.86E-30  5.92E-30  9.34E-30  1.12E-29  4.98E-30  3.96E-30  4.74E-30
  3.57E-30  4.95E-30  3.80E-30  1.06E-29  1.13E-29  6.61E-30  5.70E-30  7.09E-30
  4.98E-30  4.93E-30  4.45E-30  4.11E-30  4.75E-30  2.96E-30  9.75E-30  5.33E-30
  1.27E-29  1.14E-29  5.34E-30  4.57E-30  1.13E-29  7.28E-30  3.71E-30  5.79E-30
  4.69E-30  4.93E-30  3.58E-30  1.29E-29  4.87E-30  3.69E-30  4.09E-30  1.08E-29
  5.51E-30  4.67E-30  3.90E-30  4.00E-30  1.13E-29  1.08E-29  7.73E-30  3.18E-30
  4.38E-30  3.86E-30  4.44E-30  4.41E-30  3.10E-30  3.16E-30  5.26E-30  3.55E-30
  3.97E-30  4.23E-30  5.26E-30  5.86E-30  6.41E-30  1.17E-29  1.11E-29  1.03E-29
  8.49E-30  1.14E-29  5.93E-30  3.19E-30  8.22E-30  5.40E-30  2.81E-30  4.00E-30
  4.33E-30  3.83E-30  5.64E-30  5.20E-30  3.70E-30  1.02E-29  3.19E-30  3.32E-30
  3.63E-30  4.81E-30  7.16E-30  3.78E-30  4.21E-30  4.61E-30  2.66E-30  9.98E-30
  5.62E-30  6.08E-30  8.83E-30  9.28E-30  1.06E-29  5.24E-30  3.52E-30  3.96E-30
  5.99E-30  1.10E-29  5.83E-30  6.09E-30  1.15E-29  1.07E-29  1.08E-29  1.20E-29
  8.52E-30  2.83E-30  3.89E-30  4.83E-30  5.25E-30  8.19E-30  8.08E-30  8.52E-30
  4.28E-30  3.99E-30  3.14E-30  3.62E-30  3.67E-30  2.40E-30  4.50E-30  3.84E-30
  9.02E-30  1.04E-29  3.70E-30  4.09E-30  4.11E-30  4.88E-30  5.00E-30  8.01E-30
  4.48E-30  3.87E-30  3.75E-30  3.94E-30  8.83E-30  6.72E-30  7.40E-30  3.04E-30
  3.96E-30  4.74E-30  3.28E-30  3.98E-30  3.62E-30  3.48E-30  3.44E-30  5.73E-30
  4.26E-30  8.51E-30  5.05E-30  3.62E-30  6.06E-30  6.41E-30  3.54E-30  8.55E-30
  1.07E-29  1.01E-29  3.83E-30  3.38E-30  3.20E-30  4.20E-30  4.16E-30  2.46E-30
  4.54E-30  3.91E-30  8.69E-30  8.10E-30  2.42E-30  5.58E-30  2.79E-30  3.69E-30
  8.18E-30  1.07E-29  4.84E-30  3.16E-30  4.95E-30  3.70E-30  3.62E-30  8.62E-30
  2.93E-30  3.01E-30  3.10E-30  3.42E-30  4.27E-30  3.79E-30  2.76E-30  3.61E-30
  5.51E-30  6.83E-30  7.58E-30  6.37E-30  3.70E-30  4.19E-30  2.81E-30  5.11E-30
  4.36E-30  2.89E-30  2.97E-30  3.92E-30  4.07E-30  3.68E-30  3.89E-30  7.44E-30
  7.40E-30  1.03E-29  9.44E-30  8.96E-30  8.01E-30  5.34E-30  3.90E-30  3.74E-30
  3.55E-30  7.43E-30  3.40E-30  3.56E-30  4.04E-30  6.18E-30  3.49E-30  4.75E-30
  3.70E-30  3.92E-30  5.82E-30  5.81E-30  4.48E-30  4.82E-30  5.21E-30  5.87E-30
  3.65E-30  6.04E-30  6.05E-30  4.67E-30  4.20E-30  9.76E-30  7.47E-30  8.83E-30
  6.43E-30  3.48E-30  4.16E-30  5.42E-30  3.87E-30  4.56E-30  6.17E-30  3.16E-30
  3.47E-30  4.09E-30  7.19E-30  4.17E-30  3.65E-30  4.03E-30  3.09E-30  5.34E-30
  3.45E-30  8.31E-30  5.04E-30  3.82E-30  5.29E-30  4.73E-30  5.38E-30  4.74E-30
  3.97E-30  4.45E-30  5.32E-30  4.52E-30  4.98E-30  3.90E-30  5.40E-30  3.79E-30
  4.36E-30  5.01E-30  6.19E-30  8.59E-30  9.47E-30  4.08E-30  6.91E-30  3.64E-30
  4.17E-30  1.12E-29  4.03E-30  4.98E-30  9.85E-30  5.23E-30  3.40E-30  3.91E-30
  4.55E-30  3.84E-30  3.34E-30  5.84E-30  5.49E-30  1.09E-29  5.70E-30  5.68E-30
  6.06E-30  5.81E-30  5.17E-30  3.80E-30  5.51E-30  5.99E-30  5.02E-30  4.17E-30
  5.51E-30  4.31E-30  4.68E-30  6.12E-30  3.48E-30  4.64E-30  5.20E-30  4.67E-30
  4.88E-30  5.98E-30  5.10E-30  4.56E-30  6.77E-30  5.69E-30  4.16E-30  5.97E-30
  4.71E-30  4.75E-30  3.98E-30  5.20E-30  6.28E-30  4.75E-30  3.98E-30  5.85E-30
  5.17E-30  5.61E-30  6.57E-30  5.44E-30  5.08E-30  4.36E-30  6.13E-30  5.98E-30
  6.46E-30  4.63E-30  3.59E-30  5.65E-30  6.68E-30  6.34E-30  4.55E-30  5.89E-30
  5.43E-30  4.73E-30  4.48E-30  7.19E-30  4.73E-30  6.06E-30  5.07E-30  4.37E-30
  4.65E-30  4.56E-30  6.39E-30  7.01E-30  6.70E-30  4.48E-30  4.75E-30  3.39E-30
  5.13E-30  5.94E-30  3.80E-30  5.79E-30  7.65E-30  7.70E-30  6.58E-30  6.32E-30
  4.14E-30  1.19E-29  1.23E-29  4.26E-30  5.58E-30  4.43E-30  5.76E-30  5.21E-30
  5.55E-30  4.96E-30  6.90E-30  6.59E-30  6.72E-30  4.69E-30  5.56E-30  1.21E-29
  6.11E-30  5.27E-30  5.98E-30  5.91E-30  1.12E-29  1.01E-29  1.24E-29  6.52E-30
  5.77E-30  4.83E-30  8.26E-30  4.89E-30  7.79E-30  1.12E-29  5.85E-30  5.78E-30
  1.10E-29  6.16E-30  5.96E-30  7.45E-30  9.83E-30  7.83E-30  9.35E-30  5.38E-30
  8.38E-30  1.20E-29  8.20E-30  6.00E-30  6.52E-30  5.99E-30  1.01E-29  6.66E-30
  7.45E-30  7.26E-30  6.11E-30  6.91E-30  8.35E-30  9.91E-30  7.52E-30  7.63E-30
  6.56E-30  6.77E-30  1.32E-29  1.17E-29  1.11E-29  9.67E-30  8.86E-30  7.40E-30
  1.15E-29  1.12E-29  1.23E-29  1.18E-29  1.67E-29  1.22E-29  1.22E-29  1.03E-29
  9.86E-30  1.30E-29  1.17E-29  1.39E-29  1.18E-29  1.70E-29  1.50E-29  9.86E-30
  1.32E-29  1.35E-29  1.61E-29  1.65E-29  1.46E-29  1.33E-29  1.94E-29  1.68E-29
  1.64E-29  1.34E-29  2.04E-29  1.54E-29  1.74E-29  1.26E-29  2.76E-29  1.33E-29
  2.65E-29  2.74E-29  1.34E-29  1.36E-29  1.84E-29  1.72E-29  1.76E-29  1.66E-29
  3.51E-29  3.09E-29  4.54E-29  4.38E-29  3.22E-29  3.66E-29  3.60E-29  3.73E-29
  4.95E-29  3.88E-29  4.75E-29  3.48E-29  1.56E-29  1.61E-29  2.48E-29  3.01E-29
  7.53E-29  7.50E-29  3.02E-29  3.09E-29  1.12E-28  1.05E-28  1.08E-28  1.17E-28
  1.40E-28  1.19E-28  3.37E-29  1.44E-28  1.62E-28  3.47E-29  4.46E-29  4.52E-29
  1.85E-28  1.90E-28  5.44E-29  1.68E-28  1.77E-28  2.47E-28  1.75E-28  2.37E-28
  2.92E-28  2.52E-28  2.25E-28  6.70E-29  7.19E-29  6.85E-29  2.58E-28  2.82E-28
  2.68E-28  2.44E-28  2.95E-28  2.58E-28  2.68E-28  4.05E-28  8.37E-29  9.73E-29
  5.17E-28  4.28E-28  4.42E-28  4.11E-28  1.16E-28  1.25E-28  5.40E-28  7.06E-28
  1.86E-28  6.76E-28  7.34E-28  1.78E-28  1.61E-28  6.68E-28  1.22E-27  5.61E-28
  1.04E-27  7.80E-28  1.01E-27  8.99E-28  1.24E-27  1.06E-27  1.21E-27  1.20E-27
  9.13E-28  1.15E-27  1.16E-27  4.40E-28  1.47E-28  1.21E-28  5.18E-28  2.67E-27
  2.00E-27  2.15E-27  1.95E-27  3.14E-27  2.49E-27  2.77E-27  2.16E-27  9.10E-28
  3.99E-28  9.34E-28  2.97E-27  3.15E-27  3.16E-27  3.09E-27  3.36E-27  2.91E-27
  2.45E-23  9.09E-24  1.26E-23  2.22E-23  1.93E-23  2.78E-23  9.51E-24  2.95E-23
  2.16E-23  1.45E-23  1.75E-23  1.93E-23  1.67E-23  3.38E-23  1.56E-23  1.46E-23
  2.50E-23  2.27E-23  1.10E-23  1.87E-23  2.30E-23  1.68E-23  2.39E-23  3.33E-23
  1.62E-23  2.20E-23  1.61E-23  2.39E-23  1.37E-23  2.05E-23  1.90E-23  1.85E-23
  1.90E-23  3.42E-23  1.95E-23  1.38E-23  3.80E-23  2.38E-23  2.83E-23  1.05E-23
  1.21E-23  1.84E-23  2.58E-23  3.37E-23  9.80E-24  3.38E-23  1.52E-23  1.63E-23
  1.71E-23  2.39E-23  2.23E-23  2.83E-23  2.58E-23  8.61E-24  1.09E-23  1.36E-23
  2.28E-23  2.02E-23  2.60E-23  1.14E-23  2.25E-23  2.28E-23  2.80E-23  2.80E-23
  1.30E-23  2.47E-23  1.24E-23  1.17E-23  1.34E-23  1.95E-23  2.13E-23  1.51E-23
  1.80E-23  1.70E-23  2.60E-23  2.64E-23  1.68E-23  2.28E-23  2.09E-23  3.29E-23
  1.91E-23  2.27E-23  1.63E-23  1.23E-23  2.00E-23  2.79E-23  1.52E-23  1.27E-23
  9.71E-24  1.86E-23  2.03E-23  1.30E-23  2.94E-23  1.84E-23  3.80E-23  2.54E-23
  2.46E-23  3.90E-23  2.47E-23  1.68E-23  1.68E-23  1.90E-23  1.65E-23  2.63E-23
  1.49E-23  1.50E-23  1.63E-23  2.01E-23  2.59E-23  1.37E-23  1.38E-23  2.46E-23
  2.12E-23  2.03E-23  2.64E-23  2.21E-23  1.96E-23  2.21E-23  1.92E-23  2.49E-23
  1.71E-23  1.64E-23  1.33E-23  2.08E-23  1.62E-23  1.67E-23  2.66E-23  1.42E-23
  1.73E-23  3.42E-23  1.43E-23  3.63E-23  1.73E-23  3.78E-23  2.83E-23  2.02E-23
  3.18E-23  1.99E-23  2.15E-23  1.73E-23  1.81E-23  2.43E-23  1.67E-23  1.90E-23
  1.94E-23  2.83E-23  2.27E-23  1.75E-23  1.84E-23  2.20E-23  2.01E-23  1.54E-23
  2.23E-23  1.45E-23  2.00E-23  2.89E-23  1.25E-23  2.59E-23  1.75E-23  1.69E-23
  1.20E-23  1.97E-23  1.48E-23  1.35E-23  1.00E-23  2.61E-23  3.24E-23  2.31E-23
  2.01E-23  1.41E-23  1.94E-23  2.32E-23  1.89E-23  2.38E-23  1.80E-23  2.53E-23
  2.15E-23  1.90E-23  2.23E-23  1.66E-23  1.49E-23  1.61E-23  2.48E-23  1.66E-23
  1.83E-23  1.39E-23  2.24E-23  2.12E-23  3.17E-23  1.55E-23  1.62E-23  9.27E-24
  2.22E-23  2.12E-23  3.13E-23  2.55E-23  3.55E-23  1.50E-23  2.41E-23  1.39E-23
  2.00E-23  1.57E-23  2.10E-23  1.76E-23  1.48E-23  1.02E-23  2.73E-23  1.10E-23
  1.83E-23  2.22E-23  3.85E-23  1.70E-23  1.78E-23  1.90E-23  3.09E-23  2.59E-23
  1.21E-23  2.53E-23  1.18E-23  2.59E-23  1.78E-23  1.63E-23  2.25E-23  2.13E-23
  1.43E-23  2.32E-23  2.57E-23  2.25E-23  2.97E-23  1.19E-23  1.72E-23  2.83E-23
  3.04E-23  1.37E-23  1.67E-23  2.78E-23  2.08E-23  2.68E-23  1.97E-23  1.89E-23
  3.10E-23  1.25E-23  1.92E-23  1.69E-23  1.72E-23  2.46E-23  1.13E-23  1.46E-23
  1.73E-23  2.72E-23  1.35E-23  1.95E-23  1.54E-23  1.31E-23  2.81E-23  2.11E-23
  2.47E-23  2.28E-23  1.40E-23  1.74E-23  1.89E-23  3.11E-23  1.50E-23  1.92E-23
  2.66E-23  1.60E-23  2.77E-23  2.54E-23  2.88E-23  2.82E-23  1.00E-23  8.68E-24
  2.29E-23  1.32E-23  1.96E-23  1.49E-23  2.72E-23  1.15E-23  3.67E-23  2.63E-23
  1.30E-23  1.17E-23  1.96E-23  2.96E-23  1.25E-23  1.40E-23  2.23E-23  1.57E-23
  1.41E-23  2.28E-23  1.34E-23  1.91E-23  2.14E-23  1.32E-23  1.02E-23  1.64E-23
  1.18E-23  2.12E-23  2.16E-23  1.49E-23  2.09E-23  1.20E-23  2.62E-23  2.05E-23
  1.14E-23  1.19E-23  1.08E-23  1.80E-23  1.52E-23  1.38E-23  2.84E-23  2.33E-23
  3.37E-23  2.64E-23  2.65E-23  1.61E-23  2.87E-23  1.79E-23  1.58E-23  2.62E-23
  3.44E-23  2.66E-23  2.93E-23  4.04E-23  9.79E-24  2.66E-23  4.07E-23  2.28E-23
  3.16E-23  3.39E-23  4.93E-23  5.47E-23  6.52E-23  5.30E-23  7.42E-23  5.10E-23
  5.32E-23  5.47E-23  1.26E-23  5.64E-23  3.73E-23  4.61E-23  4.62E-23  4.60E-23
  6.91E-23  6.87E-23  7.56E-23  6.40E-23  6.58E-23  7.38E-23  6.03E-23  6.66E-23
  6.18E-23  2.63E-23  1.84E-23  1.07E-22  1.01E-22  1.17E-22  1.64E-22  1.02E-22
  1.26E-22  1.07E-22  9.67E-23  9.93E-23  1.43E-22  1.18E-22  1.29E-22  1.25E-22
  2.02E-22  1.37E-22  1.46E-22  1.82E-22  2.24E-22  2.18E-23  3.28E-23  2.65E-23
  2.77E-22  3.05E-22  2.51E-23  3.76E-22  2.90E-22  3.94E-23  3.63E-22  2.19E-22
  2.57E-23  2.29E-22  2.95E-22  3.71E-23  4.88E-23  3.02E-23  1.43E-21  9.80E-22
  7.58E-22  1.85E-21  2.42E-21  1.59E-21  1.81E-21  1.91E-21  1.19E-22  8.59E-23
  1.27E-22  6.84E-21  4.30E-21  5.77E-21  6.26E-21  5.89E-21  6.13E-21  1.01E-20
  6.75E-21  1.33E-20  1.22E-20  1.49E-20  1.86E-20  1.62E-20  1.89E-20  2.28E-20
  1.95E-20  9.92E-22  1.61E-20  2.47E-20  2.60E-20  8.73E-22  2.57E-20  1.74E-20
  2.57E-20  3.74E-20  9.09E-22  2.68E-20  3.90E-20  5.21E-20  2.36E-20  1.95E-21
  4.84E-20  5.96E-20  7.04E-20  7.62E-20  5.44E-20  6.06E-20  5.53E-20  5.17E-20
  4.78E-21  3.19E-21  2.01E-19  1.34E-19  2.05E-19  1.22E-19  2.15E-19  1.94E-19
  1.95E-19  2.28E-19  1.09E-20  2.38E-19  2.26E-19  2.49E-19  1.93E-19  2.84E-19
  2.13E-19  2.48E-19  2.71E-19  2.51E-19  1.81E-19  2.73E-19  2.90E-19  3.83E-19
  5.79E-19  4.75E-19  2.59E-19  1.88E-20  2.70E-20  3.68E-19  5.44E-19  4.91E-19
  4.25E-19  1.91E-20  2.61E-20  9.05E-19  9.80E-19  7.13E-19  8.52E-19  5.35E-19
  1.31E-18  1.62E-18  8.65E-19  1.01E-18  1.09E-18  9.78E-19  1.07E-18  3.69E-20
  8.38E-20  1.35E-19  1.73E-19  4.96E-18  8.23E-18  5.24E-18  7.74E-18  7.67E-18
  4.29E-18  9.05E-18  1.41E-17  1.05E-17  5.96E-18  4.95E-18  6.88E-18  1.10E-17
  8.45E-18  2.48E-19  4.71E-19  2.31E-19  1.47E-17  2.02E-17  1.72E-17  1.50E-17
  9.81E-19  1.26E-18  4.74E-17  4.38E-17  4.67E-17  2.44E-17  1.13E-16  3.60E-18
  9.74E-17  8.42E-17  9.51E-17  2.41E-18  2.00E-18  6.44E-18  8.62E-17  1.16E-16
  1.08E-16  1.18E-16  1.34E-16  2.67E-16  8.87E-18  8.86E-18  1.08E-15  6.72E-16
  6.93E-16  1.13E-15  5.32E-17  2.58E-17  2.63E-17  7.37E-16  1.48E-15  9.80E-16
  1.09E-15  1.42E-15  8.62E-16  1.20E-15  5.75E-16  1.82E-15  1.51E-15  1.44E-15
  1.83E-15  2.38E-15  2.96E-15  2.67E-15  3.27E-15  2.58E-15  3.92E-15  2.41E-15
  3.69E-15  1.67E-16  2.72E-16  2.95E-16  2.12E-14  5.65E-16  2.55E-14  7.04E-16
  7.98E-16  6.63E-16  2.01E-14  2.78E-14  2.60E-14  3.55E-14  3.31E-14  4.17E-14
  4.60E-14  4.74E-14  4.52E-14  5.65E-14  7.08E-14  6.82E-14  6.89E-14  6.03E-14
  4.87E-14  6.42E-14  4.71E-14  7.05E-14  3.96E-15  6.29E-14  1.21E-15  1.29E-13
  1.20E-13  1.38E-13  9.89E-14  1.12E-13  1.01E-13  1.07E-13  4.51E-15  4.42E-15
  2.57E-15  1.01E-14  4.86E-15  1.23E-14  4.51E-13  2.86E-14  4.40E-14  5.35E-14
  2.19E-12  9.85E-14  2.75E-12  5.32E-12  3.46E-12  4.44E-12  1.28E-13  7.62E-12
  1.10E-11  1.46E-11  1.36E-11  1.57E-11  1.69E-13  2.33E-13  4.06E-13  9.18E-12
  1.37E-11  3.03E-13  3.89E-13  6.67E-13  5.10E-13  1.62E-12  1.22E-12  1.21E-12
  8.63E-11  6.02E-11  6.03E-11  1.23E-10  8.08E-11  7.31E-11  6.64E-11  1.07E-10
  7.57E-11  1.30E-10  2.28E-10  2.28E-10  9.46E-11  9.12E-11  1.35E-10  1.02E-10
  2.48E-10  2.46E-10  2.26E-12  2.48E-10  1.29E-10  3.79E-10  4.87E-10  3.75E-10
  5.84E-10  7.35E-10  1.06E-11  9.28E-10  1.35E-09  6.76E-10  2.83E-11  4.81E-11
  1.01E-10  4.47E-09  1.62E-08  1.06E-08  5.64E-09  1.54E-08  1.04E-08  9.30E-09
  2.43E-08  7.23E-09  1.30E-08  6.86E-09  1.42E-08  1.69E-10  2.35E-10  4.92E-10
  5.25E-10  4.47E-10  3.36E-10  9.37E-10  1.44E-09  2.33E-07  1.13E-09  1.55E-07
  1.65E-07  5.49E-08  1.80E-07  1.97E-07  3.56E-09  1.57E-07  8.43E-08  5.61E-07
  5.34E-07  6.33E-07  4.83E-07  6.28E-09  5.92E-09  1.81E-06  1.81E-06  1.20E-08
  4.73E-09  3.70E-07  2.26E-06  2.79E-06  2.14E-06  4.33E-06  4.81E-07  1.00E-06
  5.38E-06  5.68E-08  1.75E-06  3.16E-06  7.48E-06  1.67E-05  1.37E-05  2.77E-07
  1.07E-05  1.09E-06  2.70E-06  1.19E-06  1.59E-06  5.25E-05  1.98E-05  5.18E-05
 -3.9844E+00 -3.9769E+00 -3.9634E+00 -3.9447E+00 -3.9210E+00 -3.8918E+00
 -3.8570E+00 -3.8169E+00 -3.7719E+00 -3.7213E+00 -3.7112E+00 -3.7110E+00
 -3.7037E+00 -3.7035E+00 -3.6902E+00 -3.6900E+00 -3.6872E+00 -3.6872E+00
 -3.6798E+00 -3.6796E+00 -3.6715E+00 -3.6713E+00 -3.6662E+00 -3.6662E+00
 -3.6651E+00 -3.6477E+00 -3.6476E+00 -3.6475E+00 -3.6474E+00 -3.6238E+00
 -3.6237E+00 -3.6185E+00 -3.6185E+00 -3.6038E+00 -3.5947E+00 -3.5946E+00
 -3.5838E+00 -3.5836E+00 -3.5598E+00 -3.5598E+00 -3.5438E+00 -3.5435E+00
 -3.5374E+00 -3.5197E+00 -3.5197E+00 -3.4986E+00 -3.4985E+00 -3.4747E+00
 -3.4746E+00 -3.4655E+00 -3.4481E+00 -3.4479E+00 -3.4241E+00 -3.4240E+00
 -3.4140E+00 -3.4140E+00 -3.4138E+00 -3.4137E+00 -3.4065E+00 -3.4064E+00
 -3.4064E+00 -3.4063E+00 -3.3930E+00 -3.3930E+00 -3.3928E+00 -3.3928E+00
 -3.3919E+00 -3.3917E+00 -3.3880E+00 -3.3743E+00 -3.3742E+00 -3.3741E+00
 -3.3741E+00 -3.3679E+00 -3.3679E+00 -3.3506E+00 -3.3505E+00 -3.3504E+00
 -3.3504E+00 -3.3305E+00 -3.3305E+00 -3.3214E+00 -3.3214E+00 -3.3213E+00
 -3.3213E+00 -3.3066E+00 -3.3066E+00 -3.3055E+00 -3.2866E+00 -3.2865E+00
 -3.2864E+00 -3.2864E+00 -3.2643E+00 -3.2640E+00 -3.2466E+00 -3.2465E+00
 -3.2463E+00 -3.2463E+00 -3.2403E+00 -3.2402E+00 -3.2178E+00 -3.2015E+00
 -3.2014E+00 -3.2013E+00 -3.2012E+00 -3.1922E+00 -3.1921E+00 -3.1683E+00
 -3.1682E+00 -3.1510E+00 -3.1508E+00 -3.1507E+00 -3.1507E+00 -3.1245E+00
 -3.1148E+00 -3.1147E+00 -3.0948E+00 -3.0946E+00 -3.0945E+00 -3.0945E+00
 -3.0908E+00 -3.0908E+00 -3.0334E+00 -3.0334E+00 -3.0332E+00 -3.0332E+00
 -3.0322E+00 -3.0321E+00 -3.0259E+00 -3.0083E+00 -3.0083E+00 -2.9671E+00
 -2.9670E+00 -2.9668E+00 -2.9668E+00 -2.9446E+00 -2.9444E+00 -2.9221E+00
 -2.9206E+00 -2.9206E+00 -2.8951E+00 -2.8950E+00 -2.8950E+00 -2.8949E+00
 -2.8912E+00 -2.8911E+00 -2.8838E+00 -2.8837E+00 -2.8703E+00 -2.8701E+00
 -2.8517E+00 -2.8513E+00 -2.8513E+00 -2.8511E+00 -2.8280E+00 -2.8276E+00
 -2.8273E+00 -2.8273E+00 -2.8176E+00 -2.8175E+00 -2.8175E+00 -2.8175E+00
 -2.8130E+00 -2.7987E+00 -2.7985E+00 -2.7956E+00 -2.7955E+00 -2.7881E+00
 -2.7881E+00 -2.7746E+00 -2.7746E+00 -2.7639E+00 -2.7637E+00 -2.7559E+00
 -2.7558E+00 -2.7527E+00 -2.7524E+00 -2.7350E+00 -2.7350E+00 -2.7350E+00
 -2.7349E+00 -2.7322E+00 -2.7321E+00 -2.7287E+00 -2.7286E+00 -2.7239E+00
 -2.7236E+00 -2.7031E+00 -2.7030E+00 -2.6985E+00 -2.6789E+00 -2.6785E+00
 -2.6682E+00 -2.6681E+00 -2.6488E+00 -2.6487E+00 -2.6474E+00 -2.6473E+00
 -2.6473E+00 -2.6471E+00 -2.6283E+00 -2.6281E+00 -2.6281E+00 -2.6279E+00
 -2.6250E+00 -2.6248E+00 -2.5940E+00 -2.5940E+00 -2.5939E+00 -2.5939E+00
 -2.5866E+00 -2.5866E+00 -2.5865E+00 -2.5863E+00 -2.5831E+00 -2.5830E+00
 -2.5787E+00 -2.5731E+00 -2.5731E+00 -2.5730E+00 -2.5729E+00 -2.5721E+00
 -2.5717E+00 -2.5545E+00 -2.5544E+00 -2.5542E+00 -2.5542E+00 -2.5541E+00
 -2.5540E+00 -2.5539E+00 -2.5539E+00 -2.5398E+00 -2.5397E+00 -2.5325E+00
 -2.5325E+00 -2.5308E+00 -2.5307E+00 -2.5305E+00 -2.5303E+00 -2.5225E+00
 -2.5223E+00 -2.5222E+00 -2.5221E+00 -2.5158E+00 -2.5158E+00 -2.5149E+00
 -2.5148E+00 -2.5148E+00 -2.5146E+00 -2.5107E+00 -2.5104E+00 -2.5016E+00
 -2.5014E+00 -2.5014E+00 -2.5013E+00 -2.5013E+00 -2.5013E+00 -2.5012E+00
 -2.5012E+00 -2.4827E+00 -2.4826E+00 -2.4825E+00 -2.4825E+00 -2.4763E+00
 -2.4763E+00 -2.4668E+00 -2.4666E+00 -2.4665E+00 -2.4664E+00 -2.4591E+00
 -2.4588E+00 -2.4588E+00 -2.4588E+00 -2.4556E+00 -2.4553E+00 -2.4553E+00
 -2.4552E+00 -2.4537E+00 -2.4443E+00 -2.4442E+00 -2.4299E+00 -2.4298E+00
 -2.4296E+00 -2.4295E+00 -2.4267E+00 -2.4266E+00 -2.4264E+00 -2.4263E+00
 -2.4253E+00 -2.4251E+00 -2.4150E+00 -2.4149E+00 -2.4013E+00 -2.4013E+00
 -2.3950E+00 -2.3948E+00 -2.3948E+00 -2.3948E+00 -2.3817E+00 -2.3816E+00
 -2.3813E+00 -2.3812E+00 -2.3723E+00 -2.3722E+00 -2.3550E+00 -2.3549E+00
 -2.3548E+00 -2.3545E+00 -2.3518E+00 -2.3515E+00 -2.3515E+00 -2.3515E+00
 -2.3486E+00 -2.3486E+00 -2.3311E+00 -2.3311E+00 -2.3308E+00 -2.3306E+00
 -2.3233E+00 -2.3099E+00 -2.3097E+00 -2.3097E+00 -2.3096E+00 -2.3055E+00
 -2.3053E+00 -2.2950E+00 -2.2946E+00 -2.2816E+00 -2.2814E+00 -2.2767E+00
 -2.2766E+00 -2.2749E+00 -2.2748E+00 -2.2745E+00 -2.2745E+00 -2.2593E+00
 -2.2592E+00 -2.2591E+00 -2.2590E+00 -2.2426E+00 -2.2425E+00 -2.2425E+00
 -2.2424E+00 -2.2136E+00 -2.2135E+00 -2.2133E+00 -2.2132E+00 -2.2124E+00
 -2.2121E+00 -2.2031E+00 -2.2030E+00 -2.2029E+00 -2.2028E+00 -2.1993E+00
 -2.1991E+00 -2.1875E+00 -2.1805E+00 -2.1802E+00 -2.1565E+00 -2.1564E+00
 -2.1471E+00 -2.1470E+00 -2.1470E+00 -2.1469E+00 -2.1418E+00 -2.1417E+00
 -2.1417E+00 -2.1416E+00 -2.1281E+00 -2.1280E+00 -2.1280E+00 -2.1279E+00
 -2.1247E+00 -2.1245E+00 -2.1167E+00 -2.1167E+00 -2.0755E+00 -2.0753E+00
 -2.0752E+00 -2.0752E+00 -2.0751E+00 -2.0751E+00 -2.0751E+00 -2.0749E+00
 -2.0500E+00 -2.0499E+00 -2.0467E+00 -2.0314E+00 -2.0312E+00 -2.0290E+00
 -2.0289E+00 -2.0261E+00 -2.0260E+00 -2.0084E+00 -2.0083E+00 -2.0082E+00
 -2.0080E+00 -2.0035E+00 -2.0034E+00 -2.0033E+00 -2.0032E+00 -1.9979E+00
 -1.9978E+00 -1.9975E+00 -1.9974E+00 -1.9358E+00 -1.9356E+00 -1.9328E+00
 -1.9325E+00 -1.9260E+00 -1.9259E+00 -1.9258E+00 -1.9258E+00 -1.9153E+00
 -1.9152E+00 -1.9150E+00 -1.9149E+00 -1.9142E+00 -1.9142E+00 -1.9004E+00
 -1.8904E+00 -1.8903E+00 -1.8833E+00 -1.8832E+00 -1.8830E+00 -1.8830E+00
 -1.8435E+00 -1.8434E+00 -1.8433E+00 -1.8432E+00 -1.8371E+00 -1.8369E+00
 -1.8290E+00 -1.8287E+00 -1.8276E+00 -1.8274E+00 -1.8273E+00 -1.8271E+00
 -1.7734E+00 -1.7734E+00 -1.7558E+00 -1.7557E+00 -1.7557E+00 -1.7555E+00
 -1.7529E+00 -1.7527E+00 -1.7527E+00 -1.7527E+00 -1.7495E+00 -1.7494E+00
 -1.7487E+00 -1.7342E+00 -1.7341E+00 -1.7341E+00 -1.7340E+00 -1.7333E+00
 -1.7332E+00 -1.7199E+00 -1.7198E+00 -1.7026E+00 -1.7023E+00 -1.7023E+00
 -1.7022E+00 -1.6952E+00 -1.6950E+00 -1.6947E+00 -1.6947E+00 -1.6816E+00
 -1.6815E+00 -1.6813E+00 -1.6811E+00 -1.6629E+00 -1.6628E+00 -1.6626E+00
 -1.6626E+00 -1.6624E+00 -1.6623E+00 -1.6623E+00 -1.6623E+00 -1.6394E+00
 -1.6389E+00 -1.6389E+00 -1.6387E+00 -1.6356E+00 -1.6355E+00 -1.6354E+00
 -1.6352E+00 -1.6272E+00 -1.6271E+00 -1.6243E+00 -1.6241E+00 -1.6172E+00
 -1.6170E+00 -1.6170E+00 -1.6169E+00 -1.6099E+00 -1.6099E+00 -1.6099E+00
 -1.6095E+00 -1.6055E+00 -1.6051E+00 -1.6032E+00 -1.6032E+00 -1.5919E+00
 -1.5753E+00 -1.5749E+00 -1.5749E+00 -1.5747E+00 -1.5640E+00 -1.5636E+00
 -1.5636E+00 -1.5636E+00 -1.5351E+00 -1.5350E+00 -1.5348E+00 -1.5347E+00
 -1.5319E+00 -1.5317E+00 -1.5316E+00 -1.5315E+00 -1.5250E+00 -1.5244E+00
 -1.5174E+00 -1.5170E+00 -1.5098E+00 -1.5095E+00 -1.5039E+00 -1.5035E+00
 -1.4901E+00 -1.4899E+00 -1.4897E+00 -1.4896E+00 -1.4856E+00 -1.4855E+00
 -1.4853E+00 -1.4847E+00 -1.4763E+00 -1.4762E+00 -1.4762E+00 -1.4761E+00
 -1.4755E+00 -1.4754E+00 -1.4616E+00 -1.4609E+00 -1.4601E+00 -1.4599E+00
 -1.4599E+00 -1.4599E+00 -1.4515E+00 -1.4515E+00 -1.4395E+00 -1.4394E+00
 -1.4392E+00 -1.4390E+00 -1.4322E+00 -1.4320E+00 -1.4301E+00 -1.4227E+00
 -1.4226E+00 -1.4226E+00 -1.4225E+00 -1.3976E+00 -1.3970E+00 -1.3900E+00
 -1.3898E+00 -1.3833E+00 -1.3832E+00 -1.3829E+00 -1.3829E+00 -1.3606E+00
 -1.3603E+00 -1.3575E+00 -1.3569E+00 -1.3511E+00 -1.3509E+00 -1.3508E+00
 -1.3508E+00 -1.3300E+00 -1.3300E+00 -1.3299E+00 -1.3298E+00 -1.3220E+00
 -1.3218E+00 -1.3218E+00 -1.3214E+00 -1.3186E+00 -1.3185E+00 -1.3124E+00
 -1.3119E+00 -1.3101E+00 -1.3089E+00 -1.3083E+00 -1.3083E+00 -1.3079E+00
 -1.3079E+00 -1.3024E+00 -1.3017E+00 -1.2947E+00 -1.2946E+00 -1.2893E+00
 -1.2878E+00 -1.2703E+00 -1.2694E+00 -1.2648E+00 -1.2648E+00 -1.2625E+00
 -1.2619E+00 -1.2612E+00 -1.2556E+00 -1.2554E+00 -1.2553E+00 -1.2553E+00
 -1.2467E+00 -1.2455E+00 -1.2366E+00 -1.2364E+00 -1.2363E+00 -1.2362E+00
 -1.2302E+00 -1.2299E+00 -1.2278E+00 -1.2276E+00 -1.2273E+00 -1.2271E+00
 -1.2203E+00 -1.2201E+00 -1.2200E+00 -1.2195E+00 -1.2176E+00 -1.2164E+00
 -1.2067E+00 -1.2067E+00 -1.2063E+00 -1.2062E+00 -1.2057E+00 -1.2051E+00
 -1.1885E+00 -1.1884E+00 -1.1884E+00 -1.1881E+00 -1.1881E+00 -1.1880E+00
 -1.1875E+00 -1.1874E+00 -1.1836E+00 -1.1835E+00 -1.1834E+00 -1.1834E+00
 -1.1825E+00 -1.1817E+00 -1.1783E+00 -1.1782E+00 -1.1782E+00 -1.1782E+00
 -1.1644E+00 -1.1644E+00 -1.1638E+00 -1.1637E+00 -1.1569E+00 -1.1566E+00
 -1.1443E+00 -1.1438E+00 -1.1424E+00 -1.1417E+00 -1.1352E+00 -1.1349E+00
 -1.1348E+00 -1.1347E+00 -1.1345E+00 -1.1343E+00 -1.1330E+00 -1.1327E+00
 -1.1168E+00 -1.1167E+00 -1.1166E+00 -1.1163E+00 -1.1143E+00 -1.1142E+00
 -1.1063E+00 -1.1061E+00 -1.1059E+00 -1.1057E+00 -1.1005E+00 -1.1003E+00
 -1.0999E+00 -1.0996E+00 -1.0974E+00 -1.0966E+00 -1.0944E+00 -1.0943E+00
 -1.0896E+00 -1.0780E+00 -1.0774E+00 -1.0716E+00 -1.0716E+00 -1.0635E+00
 -1.0634E+00 -1.0632E+00 -1.0630E+00 -1.0620E+00 -1.0619E+00 -1.0605E+00
 -1.0601E+00 -1.0600E+00 -1.0595E+00 -1.0468E+00 -1.0460E+00 -1.0370E+00
 -1.0367E+00 -1.0357E+00 -1.0356E+00 -1.0294E+00 -1.0288E+00 -1.0286E+00
 -1.0282E+00 -1.0273E+00 -1.0272E+00 -1.0236E+00 -1.0236E+00 -1.0233E+00
 -1.0233E+00 -1.0215E+00 -1.0215E+00 -1.0214E+00 -1.0212E+00 -1.0162E+00
 -1.0160E+00 -1.0153E+00 -1.0151E+00 -1.0147E+00 -1.0147E+00 -1.0145E+00
 -1.0143E+00 -1.0059E+00 -1.0057E+00 -9.9878E-01 -9.9862E-01 -9.9701E-01
 -9.9696E-01 -9.9623E-01 -9.9595E-01 -9.9169E-01 -9.9164E-01 -9.9140E-01
 -9.9139E-01 -9.9089E-01 -9.8959E-01 -9.8926E-01 -9.8917E-01 -9.7355E-01
 -9.7323E-01 -9.7224E-01 -9.7223E-01 -9.6533E-01 -9.6530E-01 -9.6480E-01
 -9.6463E-01 -9.6421E-01 -9.6384E-01 -9.5356E-01 -9.5341E-01 -9.4437E-01
 -9.4414E-01 -9.4316E-01 -9.4301E-01 -9.3611E-01 -9.3575E-01 -9.3561E-01
 -9.3556E-01 -9.3311E-01 -9.3291E-01 -9.3267E-01 -9.3264E-01 -9.2944E-01
 -9.2857E-01 -9.2843E-01 -9.2808E-01 -9.1179E-01 -9.0944E-01 -9.0907E-01
 -9.0866E-01 -9.0862E-01 -9.0836E-01 -9.0827E-01 -9.0798E-01 -9.0765E-01
 -8.8056E-01 -8.6926E-01 -8.6889E-01 -8.6853E-01 -8.6836E-01 -8.6301E-01
 -8.6209E-01 -8.6133E-01 -8.6109E-01 -8.6104E-01 -8.6101E-01 -8.5979E-01
 -8.5964E-01 -8.5957E-01 -8.5919E-01 -8.5793E-01 -8.5779E-01 -8.5091E-01
 -8.4724E-01 -8.4703E-01 -8.4675E-01 -8.4650E-01 -8.4587E-01 -8.4567E-01
 -8.4261E-01 -8.4250E-01 -8.4249E-01 -8.4230E-01 -8.2429E-01 -8.2397E-01
 -8.2328E-01 -8.2327E-01 -8.1634E-01 -8.1619E-01 -8.0726E-01 -8.0715E-01
 -8.0281E-01 -7.9725E-01 -7.9723E-01 -7.9712E-01 -7.9689E-01 -7.9238E-01
 -7.9233E-01 -7.9108E-01 -7.9014E-01 -7.8083E-01 -7.8077E-01 -7.8025E-01
 -7.8013E-01 -7.7379E-01 -7.7326E-01 -7.7279E-01 -7.7267E-01 -7.5820E-01
 -7.5796E-01 -7.4395E-01 -7.4393E-01 -7.4386E-01 -7.4349E-01 -7.3834E-01
 -7.2896E-01 -7.2553E-01 -7.2542E-01 -7.2537E-01 -7.2527E-01 -7.1789E-01
 -7.1729E-01 -7.1640E-01 -7.1618E-01 -7.1355E-01 -7.1279E-01 -7.1166E-01
 -7.1161E-01 -7.1155E-01 -7.0871E-01 -7.0862E-01 -7.0859E-01 -7.0833E-01
 -7.0365E-01 -6.9207E-01 -6.9204E-01 -6.9199E-01 -6.9196E-01 -6.8364E-01
 -6.7760E-01 -6.7086E-01 -6.6488E-01 -6.6469E-01 -6.5644E-01 -6.5638E-01
 -6.5628E-01 -6.5626E-01 -6.5603E-01 -6.5601E-01 -6.5567E-01 -6.5537E-01
 -6.5521E-01 -6.5506E-01 -6.4022E-01 -6.4014E-01 -6.3994E-01 -6.3988E-01
 -6.3930E-01 -6.3855E-01 -6.3843E-01 -6.3474E-01 -6.3301E-01 -6.3160E-01
 -6.3116E-01 -6.3108E-01 -6.3107E-01 -6.3066E-01 -6.3014E-01 -6.2157E-01
 -6.2153E-01 -6.1459E-01 -6.1457E-01 -5.9003E-01 -5.8939E-01 -5.8883E-01
 -5.8875E-01 -5.8476E-01 -5.8460E-01 -5.8450E-01 -5.8446E-01 -5.8439E-01
 -5.7662E-01 -5.7167E-01 -5.6644E-01 -5.6581E-01 -5.6521E-01 -5.5998E-01
 -5.5983E-01 -5.4875E-01 -5.4858E-01 -5.4854E-01 -5.4838E-01 -5.4431E-01
 -5.4340E-01 -5.4246E-01 -5.4039E-01 -5.3994E-01 -5.3131E-01 -5.3097E-01
 -5.3088E-01 -5.3079E-01 -5.2965E-01 -5.2029E-01 -5.1935E-01 -5.1913E-01
 -5.1913E-01 -5.1904E-01 -5.1892E-01 -5.1790E-01 -5.1765E-01 -5.1687E-01
 -5.1684E-01 -5.1009E-01 -5.1002E-01 -5.0994E-01 -5.0994E-01 -4.9881E-01
 -4.9853E-01 -4.8662E-01 -4.8182E-01 -4.6961E-01 -4.6529E-01 -4.6503E-01
 -4.6270E-01 -4.6203E-01 -4.6194E-01 -4.6105E-01 -4.6094E-01 -4.6081E-01
 -4.6070E-01 -4.5572E-01 -4.5555E-01 -4.5006E-01 -4.4921E-01 -4.4300E-01
 -4.4028E-01 -4.4022E-01 -4.3952E-01 -4.3947E-01 -4.3895E-01 -4.3836E-01
 -4.3833E-01 -4.3830E-01 -4.3814E-01 -4.3612E-01 -4.3178E-01 -4.3168E-01
 -4.3049E-01 -4.2856E-01 -4.2633E-01 -4.1683E-01 -4.1646E-01 -4.1636E-01
 -4.1622E-01 -4.0530E-01 -4.0312E-01 -4.0297E-01 -3.9686E-01 -3.9050E-01
 -3.8758E-01 -3.7641E-01 -3.6899E-01 -3.6772E-01 -3.6765E-01 -3.6753E-01
 -3.6745E-01 -3.6686E-01 -3.6465E-01 -3.5900E-01 -3.5849E-01 -3.5845E-01
 -3.5822E-01 -3.5811E-01 -3.5781E-01 -3.5778E-01 -3.5694E-01 -3.5673E-01
 -3.5607E-01 -3.5344E-01 -3.5335E-01 -3.5328E-01 -3.5148E-01 -3.5047E-01
 -3.4628E-01 -3.4154E-01 -3.4134E-01 -3.4133E-01 -3.4125E-01 -3.4120E-01
 -3.3951E-01 -3.3865E-01 -3.3859E-01 -3.3697E-01 -3.3673E-01 -3.3643E-01
 -3.3583E-01 -3.3568E-01 -3.3541E-01 -3.2892E-01 -3.2839E-01 -3.2829E-01
 -3.2790E-01 -3.2610E-01 -3.1527E-01 -3.1491E-01 -3.1479E-01 -3.1474E-01
 -3.1452E-01 -3.1006E-01 -3.0596E-01 -3.0431E-01 -2.9680E-01 -2.9679E-01
 -2.9670E-01 -2.9659E-01 -2.9652E-01 -2.9629E-01 -2.9596E-01 -2.9572E-01
 -2.9110E-01 -2.8759E-01 -2.8668E-01 -2.8667E-01 -2.8656E-01 -2.8648E-01
 -2.8475E-01 -2.7819E-01 -2.7307E-01 -2.7252E-01 -2.7223E-01 -2.7194E-01
 -2.7037E-01 -2.6987E-01 -2.6983E-01 -2.6944E-01 -2.6925E-01 -2.6913E-01
 -2.6897E-01 -2.6885E-01 -2.6835E-01 -2.6714E-01 -2.6704E-01 -2.6639E-01
 -2.6252E-01 -2.4782E-01 -2.4661E-01 -2.4350E-01 -2.4340E-01 -2.4332E-01
 -2.4321E-01 -2.4316E-01 -2.4298E-01 -2.4133E-01 -2.4112E-01 -2.3912E-01
 -2.3842E-01 -2.3751E-01 -2.3419E-01 -2.3199E-01 -2.2378E-01 -2.2095E-01
 -2.1754E-01 -2.1701E-01 -2.1682E-01 -2.1577E-01 -2.1567E-01 -2.1132E-01
 -2.0937E-01 -2.0902E-01 -2.0901E-01 -2.0859E-01 -2.0853E-01 -2.0843E-01
 -2.0825E-01 -2.0801E-01 -2.0798E-01 -2.0322E-01 -2.0163E-01 -2.0157E-01
 -2.0140E-01 -2.0125E-01 -1.9619E-01 -1.9604E-01 -1.9581E-01 -1.9466E-01
 -1.9448E-01 -1.9269E-01 -1.9099E-01 -1.8065E-01 -1.7814E-01 -1.7728E-01
 -1.7688E-01 -1.7678E-01 -1.7674E-01 -1.7634E-01 -1.7626E-01 -1.7608E-01
 -1.7604E-01 -1.7576E-01 -1.7308E-01 -1.7186E-01 -1.7177E-01 -1.7151E-01
 -1.7136E-01 -1.6937E-01 -1.6921E-01 -1.6902E-01 -1.6876E-01 -1.6858E-01
 -1.6825E-01 -1.6796E-01 -1.6565E-01 -1.6533E-01 -1.6482E-01 -1.6480E-01
 -1.5858E-01 -1.5843E-01 -1.5836E-01 -1.5832E-01 -1.5350E-01 -1.5348E-01
 -1.5269E-01 -1.5198E-01 -1.4778E-01 -1.4365E-01 -1.4195E-01 -1.3855E-01
 -1.3776E-01 -1.3001E-01 -1.2974E-01 -1.2964E-01 -1.2963E-01 -1.2960E-01
 -1.2529E-01 -1.2442E-01 -1.2428E-01 -1.2372E-01 -1.2345E-01 -1.2338E-01
 -1.2320E-01 -1.2299E-01 -1.2291E-01 -1.2077E-01 -1.1943E-01 -1.1857E-01
 -8.9457E-02 -8.9169E-02 -8.8648E-02 -8.8428E-02 -7.8424E-02 -7.7930E-02
 -7.7191E-02 -7.7158E-02 -7.3773E-02 -7.3582E-02 -7.3198E-02 -7.3036E-02
 -7.3003E-02 -7.2862E-02 -7.2517E-02 -7.2286E-02 -5.6183E-02 -5.6126E-02
 -5.6081E-02 -5.6008E-02 -4.9299E-02 -4.9181E-02 -4.9060E-02 -4.8903E-02
 -4.8695E-02 -4.8371E-02 -4.1426E-02 -4.1334E-02 -4.1112E-02 -4.0928E-02
 -3.9961E-02 -3.9587E-02 -3.9560E-02 -3.9452E-02 -2.3947E-02 -2.3308E-02
 -1.6990E-02 -1.6700E-02 -1.6433E-02 -1.6130E-02 -4.5551E-03 -3.8897E-03
 -3.4396E-03 -3.3001E-03  3.5392E-03  3.7482E-03  5.8604E-03  6.2771E-03
  2.5301E-02  2.5675E-02  2.6622E-02  2.6760E-02  3.0066E-02  3.0075E-02
  3.0119E-02  3.0223E-02  3.1858E-02  3.1956E-02  3.2083E-02  3.2406E-02
  4.4343E-02  4.4626E-02  4.4783E-02  4.5203E-02  4.6342E-02  4.6424E-02
  4.6855E-02  4.7490E-02  5.6094E-02  5.7951E-02  5.8198E-02  5.8643E-02
  5.8918E-02  8.1485E-02  8.2223E-02  9.4367E-02  9.4487E-02  9.4552E-02
  9.4620E-02  9.5589E-02  9.6708E-02  9.9134E-02  9.9405E-02  1.0227E-01
  1.0237E-01  1.0334E-01  1.0390E-01  1.0566E-01  1.1057E-01  1.1107E-01
  1.1125E-01  1.1160E-01  1.1303E-01  1.2120E-01  1.2221E-01  1.2550E-01
  1.2556E-01  1.2777E-01  1.2788E-01  1.2796E-01  1.2802E-01  1.3024E-01
  1.3463E-01  1.3487E-01  1.3487E-01  1.3553E-01  1.3555E-01  1.3629E-01
  1.3652E-01  1.3668E-01  1.4846E-01  1.4940E-01  1.4946E-01  1.5551E-01
  1.6343E-01  1.6409E-01  1.6475E-01  1.6480E-01  1.6638E-01  1.7776E-01
  1.7779E-01  1.7839E-01  1.7889E-01  1.8140E-01  1.8147E-01  1.8173E-01
  1.8281E-01  1.8306E-01  1.8310E-01  1.8326E-01  1.9642E-01  1.9644E-01
  1.9940E-01  1.9966E-01  1.9967E-01  1.9978E-01  2.0189E-01  2.1949E-01
  2.2048E-01  2.2196E-01  2.2409E-01  2.2418E-01  2.2425E-01  2.2452E-01
  2.3019E-01  2.3020E-01  2.3100E-01  2.3122E-01  2.3505E-01  2.3535E-01
  2.3551E-01  2.3552E-01  2.4319E-01  2.4921E-01  2.4949E-01  2.4999E-01
  2.4999E-01  2.5729E-01  2.6015E-01  2.6036E-01  2.6070E-01  2.6081E-01
  2.6559E-01  2.6875E-01  2.7186E-01  2.7209E-01  2.7255E-01  2.7462E-01
  2.7704E-01  2.7708E-01  2.7874E-01  2.7889E-01  2.8586E-01  2.9001E-01
  2.9560E-01  3.0006E-01  3.0060E-01  3.0087E-01  3.0089E-01  3.0104E-01
  3.0206E-01  3.0220E-01  3.0290E-01  3.0298E-01  3.0311E-01  3.0324E-01
  3.0339E-01  3.0359E-01  3.0831E-01  3.0935E-01  3.1631E-01  3.2324E-01
  3.2935E-01  3.2950E-01  3.3162E-01  3.3871E-01  3.4266E-01  3.4286E-01
  3.4325E-01  3.4346E-01  3.5123E-01  3.5203E-01  3.5257E-01  3.5314E-01
  3.5353E-01  3.5522E-01  3.5979E-01  3.6120E-01  3.6425E-01  3.6429E-01
  3.6830E-01  3.6872E-01  3.6907E-01  3.7000E-01  3.7002E-01  3.7236E-01
  3.7250E-01  3.7263E-01  3.7278E-01  3.7609E-01  3.7895E-01  3.7911E-01
  3.7942E-01  3.7989E-01  3.8024E-01  3.8059E-01  3.8156E-01  3.8156E-01
  3.8161E-01  3.8175E-01  3.8255E-01  3.8509E-01  3.8776E-01  3.8911E-01
  3.9544E-01  3.9637E-01  3.9943E-01  4.0275E-01  4.0894E-01  4.0988E-01
  4.1139E-01  4.1278E-01  4.1329E-01  4.1775E-01  4.1955E-01  4.2268E-01
  4.2273E-01  4.2273E-01  4.2280E-01  4.2773E-01  4.2850E-01  4.3044E-01
  4.3083E-01  4.3084E-01  4.3091E-01  4.3331E-01  4.3368E-01  4.3382E-01
  4.3395E-01  4.3949E-01  4.4237E-01  4.4312E-01  4.5074E-01  4.5147E-01
  4.5221E-01  4.5978E-01  4.6001E-01  4.6209E-01  4.6212E-01  4.6281E-01
  4.6332E-01  4.6933E-01  4.7172E-01  4.7605E-01  4.7846E-01  4.7850E-01
  4.7875E-01  4.7886E-01  4.8028E-01  4.8029E-01  4.8168E-01  4.8475E-01
  4.8698E-01  4.8774E-01  4.9358E-01  4.9400E-01  4.9487E-01  4.9519E-01
  4.9532E-01  4.9795E-01  5.0048E-01  5.0546E-01  5.0665E-01  5.1542E-01
  5.1622E-01  5.2389E-01  5.2393E-01  5.2400E-01  5.2412E-01  5.2433E-01
  5.2649E-01  5.2949E-01  5.3239E-01  5.3300E-01  5.3333E-01  5.3346E-01
  5.3348E-01  5.3876E-01  5.3877E-01  5.3904E-01  5.4006E-01  5.4547E-01
  5.4788E-01  5.4962E-01  5.5001E-01  5.5020E-01  5.5036E-01  5.5041E-01
  5.5049E-01  5.5074E-01  5.5075E-01  5.5091E-01  5.5280E-01  5.5284E-01
  5.5414E-01  5.5561E-01  5.5622E-01  5.5798E-01  5.5921E-01  5.5944E-01
  5.6270E-01  5.6292E-01  5.6648E-01  5.6906E-01  5.6907E-01  5.6961E-01
  5.6990E-01  5.7046E-01  5.7112E-01  5.7556E-01  5.7869E-01  5.8120E-01
  5.8172E-01  5.9886E-01  6.0061E-01  6.0130E-01  6.0722E-01  6.1257E-01
  6.1577E-01  6.2212E-01  6.2266E-01  6.2295E-01  6.2310E-01  6.2344E-01
  6.2436E-01  6.2470E-01  6.2527E-01  6.2540E-01  6.2545E-01  6.2642E-01
  6.2647E-01  6.2671E-01  6.2696E-01  6.2737E-01  6.2757E-01  6.2865E-01
  6.2880E-01  6.3049E-01  6.4206E-01  6.4307E-01  6.4322E-01  6.4391E-01
  6.4407E-01  6.4843E-01  6.4849E-01  6.5078E-01  6.5092E-01  6.5213E-01
  6.5900E-01  6.6107E-01  6.6139E-01  6.6147E-01  6.6152E-01  6.6153E-01
  6.6611E-01  6.6776E-01  6.7995E-01  6.8438E-01  6.8485E-01  6.8509E-01
  6.8619E-01  6.8645E-01  6.8871E-01  6.8988E-01  6.9017E-01  6.9029E-01
  6.9030E-01  6.9257E-01  6.9272E-01  6.9335E-01  6.9378E-01  6.9952E-01
  7.0425E-01  7.0590E-01  7.0639E-01  7.0678E-01  7.0738E-01  7.0741E-01
  7.0759E-01  7.0785E-01  7.0912E-01  7.0985E-01  7.1014E-01  7.1045E-01
  7.1054E-01  7.1088E-01  7.1112E-01  7.1215E-01  7.1393E-01  7.1745E-01
  7.2457E-01  7.2526E-01  7.2530E-01  7.2603E-01  7.2617E-01  7.2623E-01
  7.2663E-01  7.2697E-01  7.3003E-01  7.3018E-01  7.3283E-01  7.3323E-01
  7.3332E-01  7.3339E-01  7.4171E-01  7.4175E-01  7.4249E-01  7.4298E-01
  7.4689E-01  7.4703E-01  7.4867E-01  7.4870E-01  7.4935E-01  7.4950E-01
  7.5303E-01  7.5358E-01  7.5366E-01  7.6019E-01  7.6026E-01  7.6027E-01
  7.6104E-01  7.6105E-01  7.6849E-01  7.6861E-01  7.6944E-01  7.7010E-01
  7.7178E-01  7.7392E-01  7.7497E-01  7.7733E-01  7.7740E-01  7.7754E-01
  7.7766E-01  7.7767E-01  7.7884E-01  7.7886E-01  7.7897E-01  7.7925E-01
  7.8296E-01  7.8471E-01  7.8643E-01  7.9112E-01  7.9267E-01  7.9375E-01
  8.1004E-01  8.1043E-01  8.1118E-01  8.1245E-01  8.1282E-01  8.1322E-01
  8.1365E-01  8.2008E-01  8.2140E-01  8.3367E-01  8.3488E-01  8.3491E-01
  8.3523E-01  8.3551E-01  8.3561E-01  8.3575E-01  8.3596E-01  8.3598E-01
  8.3600E-01  8.3605E-01  8.3645E-01  8.3835E-01  8.4243E-01  8.4273E-01
  8.4438E-01  8.4516E-01  8.4563E-01  8.4656E-01  8.4663E-01  8.4987E-01
  8.4987E-01  8.5015E-01  8.5023E-01  8.5094E-01  8.5171E-01  8.5173E-01
  8.5206E-01  8.5208E-01  8.5216E-01  8.5279E-01  8.5285E-01  8.5340E-01
  8.5348E-01  8.5630E-01  8.5652E-01  8.5657E-01  8.5671E-01  8.5672E-01
  8.6280E-01  8.6416E-01  8.6762E-01  8.6809E-01  8.8585E-01  8.9419E-01
  8.9760E-01  8.9772E-01  8.9803E-01  8.9822E-01  8.9881E-01  8.9892E-01
  9.0065E-01  9.0109E-01  9.0192E-01  9.0230E-01  9.0533E-01  9.0640E-01
  9.0680E-01  9.0788E-01  9.0828E-01  9.1882E-01  9.2161E-01  9.2178E-01
  9.2182E-01  9.2185E-01  9.2411E-01  9.2562E-01  9.2668E-01  9.2746E-01
  9.3034E-01  9.3586E-01  9.3761E-01  9.3842E-01  9.3914E-01  9.3938E-01
  9.4542E-01  9.4553E-01  9.4786E-01  9.4840E-01  9.4898E-01  9.4938E-01
  9.4971E-01  9.5001E-01  9.5034E-01  9.5046E-01  9.5206E-01  9.5465E-01
  9.5467E-01  9.5532E-01  9.5559E-01  9.6097E-01  9.6489E-01  9.6850E-01
  9.7076E-01  9.7274E-01  9.7291E-01  9.7397E-01  9.8249E-01  9.8410E-01
  9.8436E-01  9.8552E-01  9.9166E-01  9.9369E-01  9.9509E-01  9.9666E-01
  9.9680E-01  1.0023E+00  1.0024E+00  1.0047E+00  1.0049E+00  1.0050E+00
  1.0051E+00  1.0052E+00  1.0081E+00  1.0081E+00  1.0083E+00  1.0084E+00
  1.0192E+00  1.0196E+00  1.0197E+00  1.0197E+00  1.0270E+00  1.0294E+00
  1.0300E+00  1.0307E+00  1.0334E+00  1.0346E+00  1.0411E+00  1.0411E+00
  1.0432E+00  1.0435E+00  1.0439E+00  1.0442E+00  1.0443E+00  1.0443E+00
  1.0447E+00  1.0450E+00  1.0451E+00  1.0472E+00  1.0473E+00  1.0482E+00
  1.0483E+00  1.0506E+00  1.0506E+00  1.0508E+00  1.0510E+00  1.0510E+00
  1.0511E+00  1.0524E+00  1.0527E+00  1.0561E+00  1.0622E+00  1.0643E+00
  1.0646E+00  1.0657E+00  1.0659E+00  1.0660E+00  1.0660E+00  1.0665E+00
  1.0668E+00  1.0670E+00  1.0677E+00  1.0692E+00  1.0693E+00  1.0693E+00
  1.0695E+00  1.0696E+00  1.0701E+00  1.0702E+00  1.0705E+00  1.0710E+00
  1.0737E+00  1.0767E+00  1.0824E+00  1.0831E+00  1.0834E+00  1.0836E+00
  1.0836E+00  1.0840E+00  1.0844E+00  1.0845E+00  1.0878E+00  1.0893E+00
  1.0911E+00  1.0949E+00  1.0985E+00  1.0987E+00  1.1066E+00  1.1073E+00
  1.1081E+00  1.1085E+00  1.1157E+00  1.1158E+00  1.1159E+00  1.1161E+00
  1.1165E+00  1.1175E+00  1.1288E+00  1.1319E+00  1.1323E+00  1.1329E+00
  1.1334E+00  1.1360E+00  1.1362E+00  1.1374E+00  1.1375E+00  1.1492E+00
  1.1493E+00  1.1493E+00  1.1499E+00  1.1505E+00  1.1507E+00  1.1510E+00
  1.1523E+00  1.1527E+00  1.1545E+00  1.1547E+00  1.1554E+00  1.1570E+00
  1.1571E+00  1.1575E+00  1.1577E+00  1.1582E+00  1.1587E+00  1.1648E+00
  1.1648E+00  1.1652E+00  1.1654E+00  1.1681E+00  1.1702E+00  1.1706E+00
  1.1710E+00  1.1711E+00  1.1717E+00  1.1721E+00  1.1722E+00  1.1723E+00
  1.1812E+00  1.1854E+00  1.1886E+00  1.1890E+00  1.1892E+00  1.1896E+00
  1.1898E+00  1.1898E+00  1.1901E+00  1.1908E+00  1.1908E+00  1.1922E+00
  1.1925E+00  1.1926E+00  1.1927E+00  1.1946E+00  1.1948E+00  1.1950E+00
  1.1952E+00  1.1971E+00  1.1973E+00  1.1975E+00  1.1975E+00  1.1989E+00
  1.1989E+00  1.1999E+00  1.2000E+00  1.2015E+00  1.2026E+00  1.2040E+00
  1.2040E+00  1.2050E+00  1.2052E+00  1.2084E+00  1.2103E+00  1.2109E+00
  1.2110E+00  1.2123E+00  1.2127E+00  1.2127E+00  1.2134E+00  1.2138E+00
  1.2146E+00  1.2172E+00  1.2186E+00  1.2213E+00  1.2214E+00  1.2223E+00
  1.2243E+00  1.2322E+00  1.2368E+00  1.2420E+00  1.2423E+00  1.2425E+00
  1.2425E+00  1.2427E+00  1.2429E+00  1.2433E+00  1.2434E+00  1.2444E+00
  1.2448E+00  1.2451E+00  1.2453E+00  1.2479E+00  1.2488E+00  1.2490E+00
  1.2520E+00  1.2524E+00  1.2556E+00  1.2560E+00  1.2577E+00  1.2577E+00
  1.2621E+00  1.2675E+00  1.2699E+00  1.2700E+00  1.2700E+00  1.2702E+00
  1.2767E+00  1.2767E+00  1.2777E+00  1.2778E+00  1.2781E+00  1.2781E+00
  1.2805E+00  1.2805E+00  1.2813E+00  1.2818E+00  1.2822E+00  1.2826E+00
  1.2891E+00  1.2905E+00  1.2915E+00  1.2964E+00  1.3066E+00  1.3068E+00
  1.3078E+00  1.3080E+00  1.3114E+00  1.3119E+00  1.3128E+00  1.3136E+00
  1.3138E+00  1.3142E+00  1.3143E+00  1.3145E+00  1.3145E+00  1.3149E+00
  1.3154E+00  1.3171E+00  1.3176E+00  1.3176E+00  1.3183E+00  1.3248E+00
  1.3253E+00  1.3255E+00  1.3257E+00  1.3262E+00  1.3270E+00  1.3271E+00
  1.3273E+00  1.3362E+00  1.3432E+00  1.3434E+00  1.3465E+00  1.3474E+00
  1.3474E+00  1.3486E+00  1.3524E+00  1.3541E+00  1.3556E+00  1.3558E+00
  1.3569E+00  1.3569E+00  1.3587E+00  1.3589E+00  1.3622E+00  1.3623E+00
  1.3626E+00  1.3627E+00  1.3627E+00  1.3635E+00  1.3640E+00  1.3642E+00
  1.3644E+00  1.3645E+00  1.3648E+00  1.3651E+00  1.3655E+00  1.3665E+00
  1.3671E+00  1.3680E+00  1.3698E+00  1.3702E+00  1.3703E+00  1.3703E+00
  1.3703E+00  1.3705E+00  1.3710E+00  1.3729E+00  1.3764E+00  1.3805E+00
  1.3845E+00  1.3862E+00  1.3897E+00  1.3978E+00  1.3995E+00  1.4090E+00
  1.4119E+00  1.4119E+00  1.4125E+00  1.4129E+00  1.4133E+00  1.4134E+00
  1.4137E+00  1.4140E+00  1.4240E+00  1.4240E+00  1.4256E+00  1.4256E+00
  1.4270E+00  1.4274E+00  1.4276E+00  1.4278E+00  1.4278E+00  1.4285E+00
  1.4330E+00  1.4366E+00  1.4386E+00  1.4406E+00  1.4410E+00  1.4430E+00
  1.4444E+00  1.4445E+00  1.4449E+00  1.4456E+00  1.4464E+00  1.4464E+00
  1.4467E+00  1.4467E+00  1.4492E+00  1.4503E+00  1.4505E+00  1.4512E+00
  1.4517E+00  1.4517E+00  1.4517E+00  1.4521E+00  1.4524E+00  1.4528E+00
  1.4541E+00  1.4542E+00  1.4547E+00  1.4604E+00  1.4610E+00  1.4612E+00
  1.4615E+00  1.4685E+00  1.4691E+00  1.4691E+00  1.4698E+00  1.4704E+00
  1.4830E+00  1.4862E+00  1.4894E+00  1.4904E+00  1.4907E+00  1.4917E+00
  1.4920E+00  1.4942E+00  1.4943E+00  1.4945E+00  1.4945E+00  1.4947E+00
  1.4947E+00  1.4947E+00  1.4948E+00  1.4964E+00  1.5011E+00  1.5027E+00
  1.5031E+00  1.5040E+00  1.5042E+00  1.5092E+00  1.5168E+00  1.5175E+00
  1.5176E+00  1.5179E+00  1.5180E+00  1.5183E+00  1.5184E+00  1.5184E+00
  1.5185E+00  1.5185E+00  1.5188E+00  1.5302E+00  1.5305E+00  1.5311E+00
  1.5317E+00  1.5341E+00  1.5358E+00  1.5374E+00  1.5384E+00  1.5413E+00
  1.5414E+00  1.5454E+00  1.5455E+00  1.5458E+00  1.5462E+00  1.5471E+00
  1.5471E+00  1.5478E+00  1.5494E+00  1.5502E+00  1.5536E+00  1.5538E+00
  1.5546E+00  1.5581E+00  1.5637E+00  1.5644E+00  1.5645E+00  1.5714E+00
  1.5730E+00  1.5749E+00  1.5753E+00  1.5768E+00  1.5788E+00  1.5819E+00
 prteigrs : prtvol=0 or 1, do not print more k-points.



Result for kinetic energy density :

--------------------------------------------------------------------------------
 Total kinetic energy density [Ha/Bohr^3]
      Maximum=    3.4434E+01  at reduced coord.    0.0000    0.5000    0.1233
      Minimum=    1.7208E-06  at reduced coord.    0.2407    0.2500    0.0365
   Integrated=    2.7164E+02
--------------------------------------------------------------------------------

--- !ResultsGS
iteration_state: {dtset: 2, }
comment   : Summary of ground state results
lattice_vectors:
- [  8.1495829,   0.0000000,   0.0000000, ]
- [  0.0000000,   8.4985343,   0.0000000, ]
- [  0.0000000,   0.0000000,  85.0376760, ]
lattice_lengths: [   8.14958,    8.49853,   85.03768, ]
lattice_angles: [ 90.000,  90.000,  90.000, ] # degrees, (23, 13, 12)
lattice_volume:   5.8896678E+03
convergence: {deltae:  0.000E+00, res2:  0.000E+00, residm:  8.528E-19, diffor:  0.000E+00, }
etotal    :  -2.92537127E+02
entropy   :   0.00000000E+00
fermie    :  -1.30549088E-01
cartesian_stress_tensor: null
pressure_GPa: null
xred      :
- [  9.3217E-01,   4.0659E-01,   4.0421E-01,  C]
- [  6.7827E-02,   5.9341E-01,   5.9579E-01,  C]
- [  4.3217E-01,   5.9341E-01,   5.9579E-01,  C]
- [  5.6783E-01,   4.0659E-01,   4.0421E-01,  C]
- [  5.6783E-01,   9.0659E-01,   5.9579E-01,  C]
- [  4.3217E-01,   9.3411E-02,   4.0421E-01,  C]
- [  6.7827E-02,   9.3411E-02,   4.0421E-01,  C]
- [  9.3217E-01,   9.0659E-01,   5.9579E-01,  C]
- [  9.3792E-01,   4.1691E-01,   4.5823E-01,  C]
- [  6.2081E-02,   5.8309E-01,   5.4177E-01,  C]
- [  4.3792E-01,   5.8309E-01,   5.4177E-01,  C]
- [  5.6208E-01,   4.1691E-01,   4.5823E-01,  C]
- [  5.6208E-01,   9.1691E-01,   5.4177E-01,  C]
- [  4.3792E-01,   8.3089E-02,   4.5823E-01,  C]
- [  6.2081E-02,   8.3089E-02,   4.5823E-01,  C]
- [  9.3792E-01,   9.1691E-01,   5.4177E-01,  C]
- [  9.3766E-01,   4.1660E-01,   5.1392E-01,  C]
- [  6.2335E-02,   5.8340E-01,   4.8608E-01,  C]
- [  4.3766E-01,   5.8340E-01,   4.8608E-01,  C]
- [  5.6234E-01,   4.1660E-01,   5.1392E-01,  C]
- [  5.6234E-01,   9.1660E-01,   4.8608E-01,  C]
- [  4.3766E-01,   8.3397E-02,   5.1392E-01,  C]
- [  6.2335E-02,   8.3397E-02,   5.1392E-01,  C]
- [  9.3766E-01,   9.1660E-01,   4.8608E-01,  C]
- [  9.3585E-01,   4.1299E-01,   5.6969E-01,  C]
- [  6.4150E-02,   5.8701E-01,   4.3031E-01,  C]
- [  4.3585E-01,   5.8701E-01,   4.3031E-01,  C]
- [  5.6415E-01,   4.1299E-01,   5.6969E-01,  C]
- [  5.6415E-01,   9.1299E-01,   4.3031E-01,  C]
- [  4.3585E-01,   8.7006E-02,   5.6969E-01,  C]
- [  6.4150E-02,   8.7006E-02,   5.6969E-01,  C]
- [  9.3585E-01,   9.1299E-01,   4.3031E-01,  C]
- [  1.0002E+00,   4.9310E-01,   6.2330E-01,  F]
- [ -2.0529E-04,   5.0690E-01,   3.7670E-01,  F]
- [  5.0021E-01,   5.0690E-01,   3.7670E-01,  F]
- [  4.9979E-01,   4.9310E-01,   6.2330E-01,  F]
- [  4.9979E-01,   9.9310E-01,   3.7670E-01,  F]
- [  5.0021E-01,   6.9037E-03,   6.2330E-01,  F]
- [ -2.0529E-04,   6.9037E-03,   6.2330E-01,  F]
- [  1.0002E+00,   9.9310E-01,   3.7670E-01,  F]
cartesian_forces: null
force_length_stats: {min: null, max: null, mean: null, }
...

 Integrated electronic density in atomic spheres:
 ------------------------------------------------
 Atom  Sphere_radius  Integrated_density
    1        2.00000          5.03950850
    2        2.00000          5.03950850
    3        2.00000          5.03950850
    4        2.00000          5.03950850
    5        2.00000          5.03950850
    6        2.00000          5.03950850
    7        2.00000          5.03950850
    8        2.00000          5.03950850
    9        2.00000          4.49227910
   10        2.00000          4.49227910
   11        2.00000          4.49227910
   12        2.00000          4.49227910
   13        2.00000          4.49227910
   14        2.00000          4.49227910
   15        2.00000          4.49227910
   16        2.00000          4.49227910
   17        2.00000          4.50926255
   18        2.00000          4.50926255
   19        2.00000          4.50926255
   20        2.00000          4.50926255
   21        2.00000          4.50926255
   22        2.00000          4.50926255
   23        2.00000          4.50926255
   24        2.00000          4.50926255
   25        2.00000          4.56905277
   26        2.00000          4.56905277
   27        2.00000          4.56905277
   28        2.00000          4.56905277
   29        2.00000          4.56905277
   30        2.00000          4.56905277
   31        2.00000          4.56905277
   32        2.00000          4.56905277
   33        2.00000          7.32337355
   34        2.00000          7.32337355
   35        2.00000          7.32337355
   36        2.00000          7.32337355
   37        2.00000          7.32337355
   38        2.00000          7.32337355
   39        2.00000          7.32337355
   40        2.00000          7.32337355
================================================================================

 ----iterations are completed or convergence reached----

 Mean square residual over all n,k,spin=   16.688E-22; max=  85.278E-20
 reduced coordinates (array xred) for   40 atoms
       0.932173259820      0.406589021601      0.404213776580
       0.067826740159      0.593410978400      0.595786223420
       0.432173259820      0.593410978400      0.595786223420
       0.567826740159      0.406589021601      0.404213776580
       0.567826740159      0.906589021601      0.595786223420
       0.432173259820      0.093410978400      0.404213776580
       0.067826740159      0.093410978400      0.404213776580
       0.932173259820      0.906589021601      0.595786223420
       0.937919346160      0.416911100730      0.458225214000
       0.062080653819      0.583088899271      0.541774786000
       0.437919346160      0.583088899271      0.541774786000
       0.562080653819      0.416911100730      0.458225214000
       0.562080653819      0.916911100730      0.541774786000
       0.437919346160      0.083088899271      0.458225214000
       0.062080653819      0.083088899271      0.458225214000
       0.937919346160      0.916911100730      0.541774786000
       0.937664860860      0.416602662780      0.513924279610
       0.062335139119      0.583397337221      0.486075720390
       0.437664860860      0.583397337221      0.486075720390
       0.562335139119      0.416602662780      0.513924279610
       0.562335139119      0.916602662780      0.486075720390
       0.437664860860      0.083397337221      0.513924279610
       0.062335139119      0.083397337221      0.513924279610
       0.937664860860      0.916602662780      0.486075720390
       0.935850399339      0.412994395291      0.569686539550
       0.064149600640      0.587005604710      0.430313460450
       0.435850399339      0.587005604710      0.430313460450
       0.564149600640      0.412994395291      0.569686539550
       0.564149600640      0.912994395291      0.430313460450
       0.435850399339      0.087005604710      0.569686539550
       0.064149600640      0.087005604710      0.569686539550
       0.935850399339      0.912994395291      0.430313460450
       1.000205293320      0.493096339360      0.623297354260
      -0.000205293341      0.506903660641      0.376702645740
       0.500205293320      0.506903660641      0.376702645740
       0.499794706659      0.493096339360      0.623297354260
       0.499794706659      0.993096339360      0.376702645740
       0.500205293320      0.006903660641      0.623297354260
      -0.000205293341      0.006903660641      0.623297354260
       1.000205293320      0.993096339360      0.376702645740

 cartesian coordinates (angstrom) at end:
    1      4.02006574193588     1.82852461365785    18.18961994613124
    2      0.29250780541886     2.66870604559771    26.81038005394606
    3      1.86377896821289     2.66870604559771    26.81038005394606
    4      2.44879457914185     1.82852461365785    18.18961994613124
    5      2.44879457914185     4.07713994328305    26.81038005394606
    6      1.86377896821289     0.42009071597252    18.18961994613124
    7      0.29250780541886     0.42009071597252    18.18961994613124
    8      4.02006574193588     4.07713994328305    26.81038005394606
    9      4.04484616188711     1.87494538438625    20.62013463003542
   10      0.26772738546764     2.62228527486932    24.37986537004187
   11      1.88855938816412     2.62228527486932    24.37986537004187
   12      2.42401415919062     1.87494538438625    20.62013463003542
   13      2.42401415919062     4.12356071401144    24.37986537004187
   14      1.88855938816412     0.37366994524412    20.62013463003542
   15      0.26772738546764     0.37366994524412    20.62013463003542
   16      4.04484616188711     4.12356071401144    24.37986537004187
   17      4.04374867531303     1.87355826777991    23.12659258248972
   18      0.26882487204171     2.62367239147566    21.87340741758757
   19      1.88746190159005     2.62367239147566    21.87340741758757
   20      2.42511164576470     1.87355826777991    23.12659258248972
   21      2.42511164576470     4.12217359740510    21.87340741758757
   22      1.88746190159005     0.37505706185046    23.12659258248972
   23      0.26882487204171     0.37505706185046    23.12659258248972
   24      4.04374867531303     4.12217359740510    21.87340741758757
   25      4.03592367655687     1.85733105660048    25.63589427979403
   26      0.27664987079788     2.63989960265509    19.36410572028326
   27      1.87963690283388     2.63989960265509    19.36410572028326
   28      2.43293664452086     1.85733105660048    25.63589427979403
   29      2.43293664452086     4.10594638622567    19.36410572028326
   30      1.87963690283388     0.39128427302989    25.63589427979403
   31      0.27664987079788     0.39128427302989    25.63589427979403
   32      4.03592367655687     4.10594638622567    19.36410572028326
   33      4.31345888998727     2.21756797533393    28.04838094174817
   34     -0.00088534263253     2.27966268392164    16.95161905832911
   35      2.15717211626429     2.27966268392164    16.95161905832911
   36      2.15540143109046     2.21756797533393    28.04838094174817
   37      2.15540143109046     4.46618330495913    16.95161905832911
   38      2.15717211626429     0.03104735429644    28.04838094174817
   39     -0.00088534263253     0.03104735429644    28.04838094174817
   40      4.31345888998727     4.46618330495913    16.95161905832911
 length scales=  8.149582932600  8.498534302400 85.037675980000 bohr
              =  4.312573547446  4.497230659250 45.000000000077 angstroms
 prteigrs : about to open file 4F-2110_gw_o_DS2_EIG
 Eigenvalues (hartree) for nkpt=  16  k points:
 kpt#   1, nband=  2184, wtk=  0.02778, kpt=  0.0000  0.0000  0.0000 (reduced coord)
  -3.98437   -3.97691   -3.96341   -3.94470   -3.92098   -3.89183   -3.85699   -3.81692
  -3.77187   -3.72129   -3.71119   -3.71095   -3.70368   -3.70355   -3.69021   -3.69001
  -3.68717   -3.68716   -3.67978   -3.67964   -3.67148   -3.67132   -3.66622   -3.66618
  -3.66511   -3.64775   -3.64761   -3.64754   -3.64744   -3.62380   -3.62374   -3.61855
  -3.61852   -3.60380   -3.59467   -3.59458   -3.58376   -3.58362   -3.55980   -3.55977
  -3.54376   -3.54349   -3.53742   -3.51975   -3.51969   -3.49865   -3.49848   -3.47470
  -3.47462   -3.46549   -3.44809   -3.44789   -3.42414   -3.42404   -3.41399   -3.41398
  -3.41377   -3.41373   -3.40653   -3.40642   -3.40641   -3.40626   -3.39303   -3.39297
  -3.39282   -3.39279   -3.39190   -3.39171   -3.38804   -3.37433   -3.37421   -3.37415
  -3.37407   -3.36792   -3.36788   -3.35058   -3.35050   -3.35042   -3.35038   -3.33052
  -3.33049   -3.32138   -3.32136   -3.32130   -3.32126   -3.30661   -3.30659   -3.30549
[...]
   1.41191    1.41192    1.41248    1.41286    1.41330    1.41339    1.41368    1.41397
   1.42395    1.42404    1.42562    1.42564    1.42697    1.42744    1.42757    1.42780
   1.42781    1.42847    1.43299    1.43665    1.43864    1.44058    1.44100    1.44299
   1.44439    1.44449    1.44494    1.44556    1.44635    1.44636    1.44671    1.44674
   1.44922    1.45026    1.45049    1.45122    1.45165    1.45173    1.45175    1.45209
   1.45242    1.45280    1.45410    1.45421    1.45471    1.46039    1.46098    1.46124
   1.46152    1.46855    1.46906    1.46910    1.46983    1.47041    1.48297    1.48616
   1.48941    1.49045    1.49066    1.49167    1.49203    1.49424    1.49429    1.49451
   1.49452    1.49467    1.49468    1.49472    1.49477    1.49642    1.50113    1.50272
   1.50308    1.50400    1.50421    1.50923    1.51683    1.51748    1.51764    1.51789
   1.51804    1.51826    1.51837    1.51844    1.51848    1.51849    1.51876    1.53016
   1.53052    1.53106    1.53167    1.53408    1.53576    1.53741    1.53842    1.54134
   1.54137    1.54543    1.54549    1.54584    1.54618    1.54706    1.54710    1.54779
   1.54941    1.55021    1.55360    1.55381    1.55460    1.55814    1.56369    1.56441
   1.56454    1.57145    1.57300    1.57490    1.57525    1.57681    1.57876    1.58190
 prteigrs : prtvol=0 or 1, do not print more k-points.


== END DATASET(S) ==============================================================
================================================================================
  
 -outvars: echo values of variables after computation  --------
-          iomode           1
            acell      8.1495829326E+00  8.4985343024E+00  8.5037675980E+01 Bohr
              amu      1.20110000E+01  1.89984032E+01
        autoparal           1
           bandpp          52
          chkprim           0
     densfor_pred           6
           diemac      1.20000000E+01
             ecut      5.00000000E+01 Hartree
-          fftalg         312
           getden           1
      gw_icutcoul           2
             iscf          -2
           istwfk        1    0    0    1    0    0    0    0    0    0
                         0    0    1    0    0    1
              ixc     -208012
           jdtset        2
              kpt      0.00000000E+00  0.00000000E+00  0.00000000E+00
                       1.66666667E-01  0.00000000E+00  0.00000000E+00
                       3.33333333E-01  0.00000000E+00  0.00000000E+00
                       5.00000000E-01  0.00000000E+00  0.00000000E+00
                       0.00000000E+00  1.66666667E-01  0.00000000E+00
                       1.66666667E-01  1.66666667E-01  0.00000000E+00
                       3.33333333E-01  1.66666667E-01  0.00000000E+00
                       5.00000000E-01  1.66666667E-01  0.00000000E+00
                       0.00000000E+00  3.33333333E-01  0.00000000E+00
                       1.66666667E-01  3.33333333E-01  0.00000000E+00
                       3.33333333E-01  3.33333333E-01  0.00000000E+00
                       5.00000000E-01  3.33333333E-01  0.00000000E+00
                       0.00000000E+00  5.00000000E-01  0.00000000E+00
                       1.66666667E-01  5.00000000E-01  0.00000000E+00
                       3.33333333E-01  5.00000000E-01  0.00000000E+00
                       5.00000000E-01  5.00000000E-01  0.00000000E+00
         kptrlatt        6    0    0      0    6    0      0    0    1
          kptrlen      4.88974976E+01
P           mkmem           2
            natom          40
            nband        2184
           nbdbuf         273
           ndtset           1
            ngfft          54      60     576
             nkpt          16
-          npband          14
-           npfft           4
-        np_spkpt           9
            nstep         100
             nsym           8
           ntypat           2
           ortalg          -2
        paral_kgb           1
          prtkden           1
          spgroup          57
           symrel      1  0  0   0  1  0   0  0  1      -1  0  0   0 -1  0   0  0 -1
                      -1  0  0   0  1  0   0  0 -1       1  0  0   0 -1  0   0  0  1
                      -1  0  0   0 -1  0   0  0  1       1  0  0   0  1  0   0  0 -1
                       1  0  0   0 -1  0   0  0 -1      -1  0  0   0  1  0   0  0  1
            tnons      0.0000000  0.0000000  0.0000000    -0.0000000  0.0000000  0.0000000
                       0.5000000  0.5000000  0.0000000     0.5000000  0.5000000  0.0000000
                      -0.0000000  0.5000000  0.0000000     0.0000000  0.5000000  0.0000000
                       0.5000000  0.0000000  0.0000000     0.5000000  0.0000000  0.0000000
           tolsym      1.00000000E-04
           tolwfr      1.00000000E-18
            typat      1  1  1  1  1  1  1  1  1  1  1  1  1  1  1  1  1  1  1  1
                       1  1  1  1  1  1  1  1  1  1  1  1  2  2  2  2  2  2  2  2
          usekden           1
          vcutgeo      1.0000000  1.0000000  0.0000000
         wfoptalg         114
              wtk        0.02778    0.05556    0.05556    0.02778    0.05556    0.11111
                         0.11111    0.05556    0.05556    0.11111    0.11111    0.05556
                         0.02778    0.05556    0.05556    0.02778
           xangst      4.0200657419E+00  1.8285246137E+00  1.8189619946E+01
                       2.9250780542E-01  2.6687060456E+00  2.6810380054E+01
                       1.8637789682E+00  2.6687060456E+00  2.6810380054E+01
                       2.4487945791E+00  1.8285246137E+00  1.8189619946E+01
                       2.4487945791E+00  4.0771399433E+00  2.6810380054E+01
                       1.8637789682E+00  4.2009071597E-01  1.8189619946E+01
                       2.9250780542E-01  4.2009071597E-01  1.8189619946E+01
                       4.0200657419E+00  4.0771399433E+00  2.6810380054E+01
                       4.0448461619E+00  1.8749453844E+00  2.0620134630E+01
                       2.6772738547E-01  2.6222852749E+00  2.4379865370E+01
                       1.8885593882E+00  2.6222852749E+00  2.4379865370E+01
                       2.4240141592E+00  1.8749453844E+00  2.0620134630E+01
                       2.4240141592E+00  4.1235607140E+00  2.4379865370E+01
                       1.8885593882E+00  3.7366994524E-01  2.0620134630E+01
                       2.6772738547E-01  3.7366994524E-01  2.0620134630E+01
                       4.0448461619E+00  4.1235607140E+00  2.4379865370E+01
                       4.0437486753E+00  1.8735582678E+00  2.3126592582E+01
                       2.6882487204E-01  2.6236723915E+00  2.1873407418E+01
                       1.8874619016E+00  2.6236723915E+00  2.1873407418E+01
                       2.4251116458E+00  1.8735582678E+00  2.3126592582E+01
                       2.4251116458E+00  4.1221735974E+00  2.1873407418E+01
                       1.8874619016E+00  3.7505706185E-01  2.3126592582E+01
                       2.6882487204E-01  3.7505706185E-01  2.3126592582E+01
                       4.0437486753E+00  4.1221735974E+00  2.1873407418E+01
                       4.0359236766E+00  1.8573310566E+00  2.5635894280E+01
                       2.7664987080E-01  2.6398996027E+00  1.9364105720E+01
                       1.8796369028E+00  2.6398996027E+00  1.9364105720E+01
                       2.4329366445E+00  1.8573310566E+00  2.5635894280E+01
                       2.4329366445E+00  4.1059463862E+00  1.9364105720E+01
                       1.8796369028E+00  3.9128427303E-01  2.5635894280E+01
                       2.7664987080E-01  3.9128427303E-01  2.5635894280E+01
                       4.0359236766E+00  4.1059463862E+00  1.9364105720E+01
                       4.3134588900E+00  2.2175679753E+00  2.8048380942E+01
                      -8.8534263253E-04  2.2796626839E+00  1.6951619058E+01
                       2.1571721163E+00  2.2796626839E+00  1.6951619058E+01
                       2.1554014311E+00  2.2175679753E+00  2.8048380942E+01
                       2.1554014311E+00  4.4661833050E+00  1.6951619058E+01
                       2.1571721163E+00  3.1047354296E-02  2.8048380942E+01
                      -8.8534263253E-04  3.1047354296E-02  2.8048380942E+01
                       4.3134588900E+00  4.4661833050E+00  1.6951619058E+01
            xcart      7.5968232885E+00  3.4554107471E+00  3.4373400159E+01
                       5.5275964397E-01  5.0431235554E+00  5.0664275821E+01
                       3.5220318222E+00  5.0431235554E+00  5.0664275821E+01
                       4.6275511103E+00  3.4554107471E+00  3.4373400159E+01
                       4.6275511103E+00  7.7046778983E+00  5.0664275821E+01
                       3.5220318222E+00  7.9385640416E-01  3.4373400159E+01
                       5.5275964397E-01  7.9385640416E-01  3.4373400159E+01
                       7.5968232885E+00  7.7046778983E+00  5.0664275821E+01
                       7.6436514956E+00  3.5431332906E+00  3.8966407274E+01
                       5.0593143681E-01  4.9554010118E+00  4.6071268706E+01
                       3.5688600293E+00  4.9554010118E+00  4.6071268706E+01
                       4.5807229031E+00  3.5431332906E+00  3.8966407274E+01
                       4.5807229031E+00  7.7924004418E+00  4.6071268706E+01
                       3.5688600293E+00  7.0613386060E-01  3.8966407274E+01
                       5.0593143681E-01  7.0613386060E-01  3.8966407274E+01
                       7.6436514956E+00  7.7924004418E+00  4.6071268706E+01
                       7.6415775466E+00  3.5405120201E+00  4.3702926368E+01
                       5.0800538587E-01  4.9580222823E+00  4.1334749612E+01
                       3.5667860803E+00  4.9580222823E+00  4.1334749612E+01
                       4.5827968522E+00  3.5405120201E+00  4.3702926368E+01
                       4.5827968522E+00  7.7897791713E+00  4.1334749612E+01
                       3.5667860803E+00  7.0875513110E-01  4.3702926368E+01
                       5.0800538587E-01  7.0875513110E-01  4.3702926368E+01
                       7.6415775466E+00  7.7897791713E+00  4.1334749612E+01
                       7.6267904419E+00  3.5098470351E+00  4.8444819360E+01
                       5.2279249051E-01  4.9886872673E+00  3.6592856620E+01
                       3.5519989756E+00  4.9886872673E+00  3.6592856620E+01
                       4.5975839568E+00  3.5098470351E+00  4.8444819360E+01
                       4.5975839568E+00  7.7591141863E+00  3.6592856620E+01
                       3.5519989756E+00  7.3942011613E-01  4.8444819360E+01
                       5.2279249051E-01  7.3942011613E-01  4.8444819360E+01
                       7.6267904419E+00  7.7591141863E+00  3.6592856620E+01
                       8.1512559875E+00  4.1905961544E+00  5.3003758451E+01
                      -1.6730551093E-03  4.3079381480E+00  3.2033917529E+01
                       4.0764645212E+00  4.3079381480E+00  3.2033917529E+01
                       4.0731184112E+00  4.1905961544E+00  5.3003758451E+01
                       4.0731184112E+00  8.4398633056E+00  3.2033917529E+01
                       4.0764645212E+00  5.8670996771E-02  5.3003758451E+01
                      -1.6730551093E-03  5.8670996771E-02  5.3003758451E+01
                       8.1512559875E+00  8.4398633056E+00  3.2033917529E+01
             xred      9.3217325982E-01  4.0658902160E-01  4.0421377658E-01
                       6.7826740159E-02  5.9341097840E-01  5.9578622342E-01
                       4.3217325982E-01  5.9341097840E-01  5.9578622342E-01
                       5.6782674016E-01  4.0658902160E-01  4.0421377658E-01
                       5.6782674016E-01  9.0658902160E-01  5.9578622342E-01
                       4.3217325982E-01  9.3410978400E-02  4.0421377658E-01
                       6.7826740159E-02  9.3410978400E-02  4.0421377658E-01
                       9.3217325982E-01  9.0658902160E-01  5.9578622342E-01
                       9.3791934616E-01  4.1691110073E-01  4.5822521400E-01
                       6.2080653819E-02  5.8308889927E-01  5.4177478600E-01
                       4.3791934616E-01  5.8308889927E-01  5.4177478600E-01
                       5.6208065382E-01  4.1691110073E-01  4.5822521400E-01
                       5.6208065382E-01  9.1691110073E-01  5.4177478600E-01
                       4.3791934616E-01  8.3088899271E-02  4.5822521400E-01
                       6.2080653819E-02  8.3088899271E-02  4.5822521400E-01
                       9.3791934616E-01  9.1691110073E-01  5.4177478600E-01
                       9.3766486086E-01  4.1660266278E-01  5.1392427961E-01
                       6.2335139119E-02  5.8339733722E-01  4.8607572039E-01
                       4.3766486086E-01  5.8339733722E-01  4.8607572039E-01
                       5.6233513912E-01  4.1660266278E-01  5.1392427961E-01
                       5.6233513912E-01  9.1660266278E-01  4.8607572039E-01
                       4.3766486086E-01  8.3397337221E-02  5.1392427961E-01
                       6.2335139119E-02  8.3397337221E-02  5.1392427961E-01
                       9.3766486086E-01  9.1660266278E-01  4.8607572039E-01
                       9.3585039934E-01  4.1299439529E-01  5.6968653955E-01
                       6.4149600640E-02  5.8700560471E-01  4.3031346045E-01
                       4.3585039934E-01  5.8700560471E-01  4.3031346045E-01
                       5.6414960064E-01  4.1299439529E-01  5.6968653955E-01
                       5.6414960064E-01  9.1299439529E-01  4.3031346045E-01
                       4.3585039934E-01  8.7005604710E-02  5.6968653955E-01
                       6.4149600640E-02  8.7005604710E-02  5.6968653955E-01
                       9.3585039934E-01  9.1299439529E-01  4.3031346045E-01
                       1.0002052933E+00  4.9309633936E-01  6.2329735426E-01
                      -2.0529334115E-04  5.0690366064E-01  3.7670264574E-01
                       5.0020529332E-01  5.0690366064E-01  3.7670264574E-01
                       4.9979470666E-01  4.9309633936E-01  6.2329735426E-01
                       4.9979470666E-01  9.9309633936E-01  3.7670264574E-01
                       5.0020529332E-01  6.9036606412E-03  6.2329735426E-01
                      -2.0529334115E-04  6.9036606412E-03  6.2329735426E-01
                       1.0002052933E+00  9.9309633936E-01  3.7670264574E-01
            znucl        6.00000    9.00000

================================================================================


- Timing analysis has been suppressed with timopt=0



================================================================================

 Suggested references for the acknowledgment of ABINIT usage.

 The users of ABINIT have little formal obligations with respect to the ABINIT group
 (those specified in the GNU General Public License, http://www.gnu.org/copyleft/gpl.txt).
 However, it is common practice in the scientific literature,
 to acknowledge the efforts of people that have made the research possible.
 In this spirit, please find below suggested citations of work written by ABINIT developers,
 corresponding to implementations inside of ABINIT that you have used in the present run.
 Note also that it will be of great value to readers of publications presenting these results,
 to read papers enabling them to understand the theoretical formalism and details
 of the ABINIT implementation.
 For information on why they are suggested, see also https://docs.abinit.org/theory/acknowledgments.
-
- [1] Libxc: A library of exchange and correlation functionals for density functional theory.
- M.A.L. Marques, M.J.T. Oliveira, T. Burnus, Computer Physics Communications 183, 2227 (2012).
- Comment: to be cited when LibXC is used (negative value of ixc)
- Strong suggestion to cite this paper.
- DOI and bibtex: see https://docs.abinit.org/theory/bibliography/#marques2012
-
- [2] Large scale ab initio calculations based on three levels of parallelization
- F. Bottin, S. Leroux, A. Knyazev, G. Zerah, Comput. Mat. Science 42, 329, (2008).
- Comment: in case LOBPCG algorithm is used (wfoptalg=4/14/114).
- Strong suggestion to cite this paper in your publications.
- This paper is also available at http://www.arxiv.org/abs/0707.3405
- DOI and bibtex: see https://docs.abinit.org/theory/bibliography/#bottin2008
-
- [3] The Abinit project: Impact, environment and recent developments.
- Computer Phys. Comm. 248, 107042 (2020).
- X.Gonze, B. Amadon, G. Antonius, F.Arnardi, L.Baguet, J.-M.Beuken,
- J.Bieder, F.Bottin, J.Bouchet, E.Bousquet, N.Brouwer, F.Bruneval,
- G.Brunin, T.Cavignac, J.-B. Charraud, Wei Chen, M.Cote, S.Cottenier,
- J.Denier, G.Geneste, Ph.Ghosez, M.Giantomassi, Y.Gillet, O.Gingras,
- D.R.Hamann, G.Hautier, Xu He, N.Helbig, N.Holzwarth, Y.Jia, F.Jollet,
- W.Lafargue-Dit-Hauret, K.Lejaeghere, M.A.L.Marques, A.Martin, C.Martins,
- H.P.C. Miranda, F.Naccarato, K. Persson, G.Petretto, V.Planes, Y.Pouillon,
- S.Prokhorenko, F.Ricci, G.-M.Rignanese, A.H.Romero, M.M.Schmitt, M.Torrent,
- M.J.van Setten, B.Van Troeye, M.J.Verstraete, G.Zerah and J.W.Zwanzig
- Comment: the fifth generic paper describing the ABINIT project.
- Note that a version of this paper, that is not formatted for Computer Phys. Comm. 
- is available at https://www.abinit.org/sites/default/files/ABINIT20.pdf .
- The licence allows the authors to put it on the Web.
- DOI and bibtex: see https://docs.abinit.org/theory/bibliography/#gonze2020
-
- [4] ABINIT: Overview, and focus on selected capabilities
- J. Chem. Phys. 152, 124102 (2020).
- A. Romero, D.C. Allan, B. Amadon, G. Antonius, T. Applencourt, L.Baguet,
- J.Bieder, F.Bottin, J.Bouchet, E.Bousquet, F.Bruneval,
- G.Brunin, D.Caliste, M.Cote,
- J.Denier, C. Dreyer, Ph.Ghosez, M.Giantomassi, Y.Gillet, O.Gingras,
- D.R.Hamann, G.Hautier, F.Jollet, G. Jomard,
- A.Martin, 
- H.P.C. Miranda, F.Naccarato, G.Petretto, N.A. Pike, V.Planes,
- S.Prokhorenko, T. Rangel, F.Ricci, G.-M.Rignanese, M.Royo, M.Stengel, M.Torrent,
- M.J.van Setten, B.Van Troeye, M.J.Verstraete, J.Wiktor, J.W.Zwanziger, and X.Gonze.
- Comment: a global overview of ABINIT, with focus on selected capabilities .
- Note that a version of this paper, that is not formatted for J. Chem. Phys 
- is available at https://www.abinit.org/sites/default/files/ABINIT20_JPC.pdf .
- The licence allows the authors to put it on the Web.
- DOI and bibtex: see https://docs.abinit.org/theory/bibliography/#romero2020
-
- [5] Recent developments in the ABINIT software package.
- Computer Phys. Comm. 205, 106 (2016).
- X.Gonze, F.Jollet, F.Abreu Araujo, D.Adams, B.Amadon, T.Applencourt,
- C.Audouze, J.-M.Beuken, J.Bieder, A.Bokhanchuk, E.Bousquet, F.Bruneval
- D.Caliste, M.Cote, F.Dahm, F.Da Pieve, M.Delaveau, M.Di Gennaro,
- B.Dorado, C.Espejo, G.Geneste, L.Genovese, A.Gerossier, M.Giantomassi,
- Y.Gillet, D.R.Hamann, L.He, G.Jomard, J.Laflamme Janssen, S.Le Roux,
- A.Levitt, A.Lherbier, F.Liu, I.Lukacevic, A.Martin, C.Martins,
- M.J.T.Oliveira, S.Ponce, Y.Pouillon, T.Rangel, G.-M.Rignanese,
- A.H.Romero, B.Rousseau, O.Rubel, A.A.Shukri, M.Stankovski, M.Torrent,
- M.J.Van Setten, B.Van Troeye, M.J.Verstraete, D.Waroquier, J.Wiktor,
- B.Xu, A.Zhou, J.W.Zwanziger.
- Comment: the fourth generic paper describing the ABINIT project.
- Note that a version of this paper, that is not formatted for Computer Phys. Comm. 
- is available at https://www.abinit.org/sites/default/files/ABINIT16.pdf .
- The licence allows the authors to put it on the Web.
- DOI and bibtex: see https://docs.abinit.org/theory/bibliography/#gonze2016
-
- Proc.   0 individual time (sec): cpu=      10035.3  wall=      10052.0

================================================================================

 Calculation completed.
.Delivered   0 WARNINGs and   2 COMMENTs to log file.
+Overall time at end (sec) : cpu=    5065399.3  wall=    5066249.5
