
.Version 9.7.2 of ABINIT 
.(MPI version, prepared for a x86_64_linux_gnu10.3 computer) 

.Copyright (C) 1998-2021 ABINIT group . 
 ABINIT comes with ABSOLUTELY NO WARRANTY.
 It is free software, and you are welcome to redistribute it
 under certain conditions (GNU General Public License,
 see ~abinit/COPYING or http://www.gnu.org/copyleft/gpl.txt).

 ABINIT is a project of the Universite Catholique de Louvain,
 Corning Inc. and other collaborators, see ~abinit/doc/developers/contributors.txt .
 Please read https://docs.abinit.org/theory/acknowledgments for suggested
 acknowledgments of the ABINIT effort.
 For more information, see https://www.abinit.org .

.Starting date : Tue 22 Mar 2022.
- ( at 22h46 )
  
- input  file    -> ./4F-2110_gw.abi
- output file    -> 4F-2110_gw.abo
- root for input  files -> 4F-2110_gw_i
- root for output files -> 4F-2110_gw_o


 DATASET    3 : space group Pb c m (# 57); Bravais oP (primitive ortho.)
================================================================================
 Values of the parameters that define the memory need for DATASET  3.
     intxc =       0    ionmov =       0      iscf =       7    lmnmax =       1
     lnmax =       1     mgfft =     576  mpssoang =       2    mqgrid =   27069
     natom =      40  nloc_mem =       1    nspden =       1   nspinor =       1
    nsppol =       1      nsym =       8    n1xccc =       0    ntypat =       2
    occopt =       1   xclevel =       2
-    mband =        1092        mffmem =           1         mkmem =           1
       mpw =       99620          nfft =     1866240          nkpt =          16
================================================================================
P This job should need less than                    2295.525 Mbytes of memory.
  Rough estimation (10% accuracy) of disk space for files :
_ WF disk file :  26558.850 Mbytes ; DEN or POT disk file :     14.240 Mbytes.
================================================================================


 DATASET    4 : space group Pb c m (# 57); Bravais oP (primitive ortho.)
================================================================================
 Values of the parameters that define the memory need for DATASET  4.
     intxc =       0    ionmov =       0      iscf =       7    lmnmax =       1
     lnmax =       1     mgfft =     576  mpssoang =       2    mqgrid =   27069
     natom =      40  nloc_mem =       1    nspden =       1   nspinor =       1
    nsppol =       1      nsym =       8    n1xccc =       0    ntypat =       2
    occopt =       1   xclevel =       2
-    mband =        1638        mffmem =           1         mkmem =           1
       mpw =       99620          nfft =     1866240          nkpt =          16
================================================================================
P This job should need less than                    3169.100 Mbytes of memory.
  Rough estimation (10% accuracy) of disk space for files :
_ WF disk file :  39838.273 Mbytes ; DEN or POT disk file :     14.240 Mbytes.
================================================================================

--------------------------------------------------------------------------------
------------- Echo of variables that govern the present computation ------------
--------------------------------------------------------------------------------
-
- outvars: echo of selected default values                                      
-   iomode0 =  0 , fftalg0 =312 , wfoptalg0 =  0
-
- outvars: echo of global parameters not present in the input file              
-  max_nthreads =    0
-
 -outvars: echo values of preprocessed input variables --------
            acell      8.1495829326E+00  8.4985343024E+00  8.5037675980E+01 Bohr
              amu      1.20110000E+01  1.89984032E+01
             bdgw4         90      93
          chkprim           0
           diemac      1.20000000E+01
             ecut      5.00000000E+01 Hartree
          ecuteps3     5.00000000E+00 Hartree
          ecuteps4     0.00000000E+00 Hartree
         ecutsigx3     0.00000000E+00 Hartree
         ecutsigx4     2.50000000E+01 Hartree
          ecutwfn      5.00000000E+01 Hartree
-          fftalg         312
           getscr3          0
           getscr4          3
           getwfk           2
      gw_icutcoul           2
           istwfk        1    0    0    1    0    0    0    0    0    0
                         0    0    1    0    0    1
              ixc     -208012
           jdtset        3    4
              kpt      0.00000000E+00  0.00000000E+00  0.00000000E+00
                       1.66666667E-01  0.00000000E+00  0.00000000E+00
                       3.33333333E-01  0.00000000E+00  0.00000000E+00
                       5.00000000E-01  0.00000000E+00  0.00000000E+00
                       0.00000000E+00  1.66666667E-01  0.00000000E+00
                       1.66666667E-01  1.66666667E-01  0.00000000E+00
                       3.33333333E-01  1.66666667E-01  0.00000000E+00
                       5.00000000E-01  1.66666667E-01  0.00000000E+00
                       0.00000000E+00  3.33333333E-01  0.00000000E+00
                       1.66666667E-01  3.33333333E-01  0.00000000E+00
                       3.33333333E-01  3.33333333E-01  0.00000000E+00
                       5.00000000E-01  3.33333333E-01  0.00000000E+00
                       0.00000000E+00  5.00000000E-01  0.00000000E+00
                       1.66666667E-01  5.00000000E-01  0.00000000E+00
                       3.33333333E-01  5.00000000E-01  0.00000000E+00
                       5.00000000E-01  5.00000000E-01  0.00000000E+00
            kptgw4     0.00000000E+00  0.00000000E+00  0.00000000E+00
         kptrlatt        6    0    0      0    6    0      0    0    1
          kptrlen      4.88974976E+01
P           mkmem           1
            natom          40
            nband3       1092
            nband4       1638
           ndtset           2
            ngfft          54      60     576
             nkpt          16
           nkptgw3          0
           nkptgw4          1
           npweps3       3101
           npweps4          0
          npwsigx3          0
          npwsigx4      35227
           npwwfn       99421
            nstep         100
             nsym           8
           ntypat           2
              occ3     2.000000  2.000000  2.000000  2.000000  2.000000  2.000000
                       2.000000  2.000000  2.000000  2.000000  2.000000  2.000000
                       2.000000  2.000000  2.000000  2.000000  2.000000  2.000000
                       2.000000  2.000000  2.000000  2.000000  2.000000  2.000000
                       2.000000  2.000000  2.000000  2.000000  2.000000  2.000000
                       2.000000  2.000000  2.000000  2.000000  2.000000  2.000000
                       2.000000  2.000000  2.000000  2.000000  2.000000  2.000000
                       2.000000  2.000000  2.000000  2.000000  2.000000  2.000000
                       2.000000  2.000000  2.000000  2.000000  2.000000  2.000000
                       2.000000  2.000000  2.000000  2.000000  2.000000  2.000000
                       2.000000  2.000000  2.000000  2.000000  2.000000  2.000000
                       2.000000  2.000000  2.000000  2.000000  2.000000  2.000000
                       2.000000  2.000000  2.000000  2.000000  2.000000  2.000000
                       2.000000  2.000000  2.000000  2.000000  2.000000  2.000000
                       2.000000  2.000000  2.000000  2.000000  2.000000  2.000000
                       2.000000  2.000000  0.000000  0.000000  0.000000  0.000000
                       0.000000  0.000000  0.000000  0.000000  0.000000  0.000000
                       0.000000  0.000000  0.000000  0.000000  0.000000  0.000000
                       0.000000  0.000000  0.000000  0.000000  0.000000  0.000000
                       0.000000  0.000000  0.000000  0.000000  0.000000  0.000000
                       0.000000  0.000000  0.000000  0.000000  0.000000  0.000000
                       0.000000  0.000000  0.000000  0.000000  0.000000  0.000000
                       0.000000  0.000000  0.000000  0.000000  0.000000  0.000000
                       0.000000  0.000000  0.000000  0.000000  0.000000  0.000000
                       0.000000  0.000000  0.000000  0.000000  0.000000  0.000000
                       0.000000  0.000000  0.000000  0.000000  0.000000  0.000000
                       0.000000  0.000000  0.000000  0.000000  0.000000  0.000000
                       0.000000  0.000000  0.000000  0.000000  0.000000  0.000000
                       0.000000  0.000000  0.000000  0.000000  0.000000  0.000000
                       0.000000  0.000000  0.000000  0.000000  0.000000  0.000000
                       0.000000  0.000000  0.000000  0.000000  0.000000  0.000000
                       0.000000  0.000000  0.000000  0.000000  0.000000  0.000000
                       0.000000  0.000000  0.000000  0.000000  0.000000  0.000000
                       0.000000  0.000000  0.000000  0.000000  0.000000  0.000000
                       0.000000  0.000000  0.000000  0.000000  0.000000  0.000000
                       0.000000  0.000000  0.000000  0.000000  0.000000  0.000000
                       0.000000  0.000000  0.000000  0.000000  0.000000  0.000000
                       0.000000  0.000000  0.000000  0.000000  0.000000  0.000000
                       0.000000  0.000000  0.000000  0.000000  0.000000  0.000000
                       0.000000  0.000000  0.000000  0.000000  0.000000  0.000000
                       0.000000  0.000000  0.000000  0.000000  0.000000  0.000000
                       0.000000  0.000000  0.000000  0.000000  0.000000  0.000000
                       0.000000  0.000000  0.000000  0.000000  0.000000  0.000000
                       0.000000  0.000000  0.000000  0.000000  0.000000  0.000000
                       0.000000  0.000000  0.000000  0.000000  0.000000  0.000000
                       0.000000  0.000000  0.000000  0.000000  0.000000  0.000000
                       0.000000  0.000000  0.000000  0.000000  0.000000  0.000000
                       0.000000  0.000000  0.000000  0.000000  0.000000  0.000000
                       0.000000  0.000000  0.000000  0.000000  0.000000  0.000000
                       0.000000  0.000000  0.000000  0.000000  0.000000  0.000000
                       0.000000  0.000000  0.000000  0.000000  0.000000  0.000000
                       0.000000  0.000000  0.000000  0.000000  0.000000  0.000000
                       0.000000  0.000000  0.000000  0.000000  0.000000  0.000000
                       0.000000  0.000000  0.000000  0.000000  0.000000  0.000000
                       0.000000  0.000000  0.000000  0.000000  0.000000  0.000000
                       0.000000  0.000000  0.000000  0.000000  0.000000  0.000000
                       0.000000  0.000000  0.000000  0.000000  0.000000  0.000000
                       0.000000  0.000000  0.000000  0.000000  0.000000  0.000000
                       0.000000  0.000000  0.000000  0.000000  0.000000  0.000000
                       0.000000  0.000000  0.000000  0.000000  0.000000  0.000000
                       0.000000  0.000000  0.000000  0.000000  0.000000  0.000000
                       0.000000  0.000000  0.000000  0.000000  0.000000  0.000000
                       0.000000  0.000000  0.000000  0.000000  0.000000  0.000000
                       0.000000  0.000000  0.000000  0.000000  0.000000  0.000000
                       0.000000  0.000000  0.000000  0.000000  0.000000  0.000000
                       0.000000  0.000000  0.000000  0.000000  0.000000  0.000000
                       0.000000  0.000000  0.000000  0.000000  0.000000  0.000000
                       0.000000  0.000000  0.000000  0.000000  0.000000  0.000000
                       0.000000  0.000000  0.000000  0.000000  0.000000  0.000000
                       0.000000  0.000000  0.000000  0.000000  0.000000  0.000000
                       0.000000  0.000000  0.000000  0.000000  0.000000  0.000000
                       0.000000  0.000000  0.000000  0.000000  0.000000  0.000000
                       0.000000  0.000000  0.000000  0.000000  0.000000  0.000000
                       0.000000  0.000000  0.000000  0.000000  0.000000  0.000000
                       0.000000  0.000000  0.000000  0.000000  0.000000  0.000000
                       0.000000  0.000000  0.000000  0.000000  0.000000  0.000000
                       0.000000  0.000000  0.000000  0.000000  0.000000  0.000000
                       0.000000  0.000000  0.000000  0.000000  0.000000  0.000000
                       0.000000  0.000000  0.000000  0.000000  0.000000  0.000000
                       0.000000  0.000000  0.000000  0.000000  0.000000  0.000000
                       0.000000  0.000000  0.000000  0.000000  0.000000  0.000000
                       0.000000  0.000000  0.000000  0.000000  0.000000  0.000000
                       0.000000  0.000000  0.000000  0.000000  0.000000  0.000000
                       0.000000  0.000000  0.000000  0.000000  0.000000  0.000000
                       0.000000  0.000000  0.000000  0.000000  0.000000  0.000000
                       0.000000  0.000000  0.000000  0.000000  0.000000  0.000000
                       0.000000  0.000000  0.000000  0.000000  0.000000  0.000000
                       0.000000  0.000000  0.000000  0.000000  0.000000  0.000000
                       0.000000  0.000000  0.000000  0.000000  0.000000  0.000000
                       0.000000  0.000000  0.000000  0.000000  0.000000  0.000000
                       0.000000  0.000000  0.000000  0.000000  0.000000  0.000000
                       0.000000  0.000000  0.000000  0.000000  0.000000  0.000000
                       0.000000  0.000000  0.000000  0.000000  0.000000  0.000000
                       0.000000  0.000000  0.000000  0.000000  0.000000  0.000000
                       0.000000  0.000000  0.000000  0.000000  0.000000  0.000000
                       0.000000  0.000000  0.000000  0.000000  0.000000  0.000000
                       0.000000  0.000000  0.000000  0.000000  0.000000  0.000000
                       0.000000  0.000000  0.000000  0.000000  0.000000  0.000000
                       0.000000  0.000000  0.000000  0.000000  0.000000  0.000000
                       0.000000  0.000000  0.000000  0.000000  0.000000  0.000000
                       0.000000  0.000000  0.000000  0.000000  0.000000  0.000000
                       0.000000  0.000000  0.000000  0.000000  0.000000  0.000000
                       0.000000  0.000000  0.000000  0.000000  0.000000  0.000000
                       0.000000  0.000000  0.000000  0.000000  0.000000  0.000000
                       0.000000  0.000000  0.000000  0.000000  0.000000  0.000000
                       0.000000  0.000000  0.000000  0.000000  0.000000  0.000000
                       0.000000  0.000000  0.000000  0.000000  0.000000  0.000000
                       0.000000  0.000000  0.000000  0.000000  0.000000  0.000000
                       0.000000  0.000000  0.000000  0.000000  0.000000  0.000000
                       0.000000  0.000000  0.000000  0.000000  0.000000  0.000000
                       0.000000  0.000000  0.000000  0.000000  0.000000  0.000000
                       0.000000  0.000000  0.000000  0.000000  0.000000  0.000000
                       0.000000  0.000000  0.000000  0.000000  0.000000  0.000000
                       0.000000  0.000000  0.000000  0.000000  0.000000  0.000000
                       0.000000  0.000000  0.000000  0.000000  0.000000  0.000000
                       0.000000  0.000000  0.000000  0.000000  0.000000  0.000000
                       0.000000  0.000000  0.000000  0.000000  0.000000  0.000000
                       0.000000  0.000000  0.000000  0.000000  0.000000  0.000000
                       0.000000  0.000000  0.000000  0.000000  0.000000  0.000000
                       0.000000  0.000000  0.000000  0.000000  0.000000  0.000000
                       0.000000  0.000000  0.000000  0.000000  0.000000  0.000000
                       0.000000  0.000000  0.000000  0.000000  0.000000  0.000000
                       0.000000  0.000000  0.000000  0.000000  0.000000  0.000000
                       0.000000  0.000000  0.000000  0.000000  0.000000  0.000000
                       0.000000  0.000000  0.000000  0.000000  0.000000  0.000000
                       0.000000  0.000000  0.000000  0.000000  0.000000  0.000000
                       0.000000  0.000000  0.000000  0.000000  0.000000  0.000000
                       0.000000  0.000000  0.000000  0.000000  0.000000  0.000000
                       0.000000  0.000000  0.000000  0.000000  0.000000  0.000000
                       0.000000  0.000000  0.000000  0.000000  0.000000  0.000000
                       0.000000  0.000000  0.000000  0.000000  0.000000  0.000000
                       0.000000  0.000000  0.000000  0.000000  0.000000  0.000000
                       0.000000  0.000000  0.000000  0.000000  0.000000  0.000000
                       0.000000  0.000000  0.000000  0.000000  0.000000  0.000000
                       0.000000  0.000000  0.000000  0.000000  0.000000  0.000000
                       0.000000  0.000000  0.000000  0.000000  0.000000  0.000000
                       0.000000  0.000000  0.000000  0.000000  0.000000  0.000000
                       0.000000  0.000000  0.000000  0.000000  0.000000  0.000000
                       0.000000  0.000000  0.000000  0.000000  0.000000  0.000000
                       0.000000  0.000000  0.000000  0.000000  0.000000  0.000000
                       0.000000  0.000000  0.000000  0.000000  0.000000  0.000000
                       0.000000  0.000000  0.000000  0.000000  0.000000  0.000000
                       0.000000  0.000000  0.000000  0.000000  0.000000  0.000000
                       0.000000  0.000000  0.000000  0.000000  0.000000  0.000000
                       0.000000  0.000000  0.000000  0.000000  0.000000  0.000000
                       0.000000  0.000000  0.000000  0.000000  0.000000  0.000000
                       0.000000  0.000000  0.000000  0.000000  0.000000  0.000000
                       0.000000  0.000000  0.000000  0.000000  0.000000  0.000000
                       0.000000  0.000000  0.000000  0.000000  0.000000  0.000000
                       0.000000  0.000000  0.000000  0.000000  0.000000  0.000000
                       0.000000  0.000000  0.000000  0.000000  0.000000  0.000000
                       0.000000  0.000000  0.000000  0.000000  0.000000  0.000000
                       0.000000  0.000000  0.000000  0.000000  0.000000  0.000000
                       0.000000  0.000000  0.000000  0.000000  0.000000  0.000000
                       0.000000  0.000000  0.000000  0.000000  0.000000  0.000000
                       0.000000  0.000000  0.000000  0.000000  0.000000  0.000000
                       0.000000  0.000000  0.000000  0.000000  0.000000  0.000000
                       0.000000  0.000000  0.000000  0.000000  0.000000  0.000000
                       0.000000  0.000000  0.000000  0.000000  0.000000  0.000000
                       0.000000  0.000000  0.000000  0.000000  0.000000  0.000000
                       0.000000  0.000000  0.000000  0.000000  0.000000  0.000000
                       0.000000  0.000000  0.000000  0.000000  0.000000  0.000000
                       0.000000  0.000000  0.000000  0.000000  0.000000  0.000000
                       0.000000  0.000000  0.000000  0.000000  0.000000  0.000000
                       0.000000  0.000000  0.000000  0.000000  0.000000  0.000000
                       0.000000  0.000000  0.000000  0.000000  0.000000  0.000000
                       0.000000  0.000000  0.000000  0.000000  0.000000  0.000000
                       0.000000  0.000000  0.000000  0.000000  0.000000  0.000000
                       0.000000  0.000000  0.000000  0.000000  0.000000  0.000000
                       0.000000  0.000000  0.000000  0.000000  0.000000  0.000000
                       0.000000  0.000000  0.000000  0.000000  0.000000  0.000000
                       0.000000  0.000000  0.000000  0.000000  0.000000  0.000000
                       0.000000  0.000000  0.000000  0.000000  0.000000  0.000000
                       0.000000  0.000000  0.000000  0.000000  0.000000  0.000000
                       0.000000  0.000000  0.000000  0.000000  0.000000  0.000000
                       0.000000  0.000000  0.000000  0.000000  0.000000  0.000000
                       0.000000  0.000000  0.000000  0.000000  0.000000  0.000000
                       0.000000  0.000000  0.000000  0.000000  0.000000  0.000000
                       0.000000  0.000000  0.000000  0.000000  0.000000  0.000000
                       0.000000  0.000000  0.000000  0.000000  0.000000  0.000000
                       0.000000  0.000000  0.000000  0.000000  0.000000  0.000000
                       0.000000  0.000000  0.000000  0.000000  0.000000  0.000000
              occ4     2.000000  2.000000  2.000000  2.000000  2.000000  2.000000
                       2.000000  2.000000  2.000000  2.000000  2.000000  2.000000
                       2.000000  2.000000  2.000000  2.000000  2.000000  2.000000
                       2.000000  2.000000  2.000000  2.000000  2.000000  2.000000
                       2.000000  2.000000  2.000000  2.000000  2.000000  2.000000
                       2.000000  2.000000  2.000000  2.000000  2.000000  2.000000
                       2.000000  2.000000  2.000000  2.000000  2.000000  2.000000
                       2.000000  2.000000  2.000000  2.000000  2.000000  2.000000
                       2.000000  2.000000  2.000000  2.000000  2.000000  2.000000
                       2.000000  2.000000  2.000000  2.000000  2.000000  2.000000
                       2.000000  2.000000  2.000000  2.000000  2.000000  2.000000
                       2.000000  2.000000  2.000000  2.000000  2.000000  2.000000
                       2.000000  2.000000  2.000000  2.000000  2.000000  2.000000
                       2.000000  2.000000  2.000000  2.000000  2.000000  2.000000
                       2.000000  2.000000  2.000000  2.000000  2.000000  2.000000
                       2.000000  2.000000  0.000000  0.000000  0.000000  0.000000
                       0.000000  0.000000  0.000000  0.000000  0.000000  0.000000
                       0.000000  0.000000  0.000000  0.000000  0.000000  0.000000
                       0.000000  0.000000  0.000000  0.000000  0.000000  0.000000
                       0.000000  0.000000  0.000000  0.000000  0.000000  0.000000
                       0.000000  0.000000  0.000000  0.000000  0.000000  0.000000
                       0.000000  0.000000  0.000000  0.000000  0.000000  0.000000
                       0.000000  0.000000  0.000000  0.000000  0.000000  0.000000
                       0.000000  0.000000  0.000000  0.000000  0.000000  0.000000
                       0.000000  0.000000  0.000000  0.000000  0.000000  0.000000
                       0.000000  0.000000  0.000000  0.000000  0.000000  0.000000
                       0.000000  0.000000  0.000000  0.000000  0.000000  0.000000
                       0.000000  0.000000  0.000000  0.000000  0.000000  0.000000
                       0.000000  0.000000  0.000000  0.000000  0.000000  0.000000
                       0.000000  0.000000  0.000000  0.000000  0.000000  0.000000
                       0.000000  0.000000  0.000000  0.000000  0.000000  0.000000
                       0.000000  0.000000  0.000000  0.000000  0.000000  0.000000
                       0.000000  0.000000  0.000000  0.000000  0.000000  0.000000
                       0.000000  0.000000  0.000000  0.000000  0.000000  0.000000
                       0.000000  0.000000  0.000000  0.000000  0.000000  0.000000
                       0.000000  0.000000  0.000000  0.000000  0.000000  0.000000
                       0.000000  0.000000  0.000000  0.000000  0.000000  0.000000
                       0.000000  0.000000  0.000000  0.000000  0.000000  0.000000
                       0.000000  0.000000  0.000000  0.000000  0.000000  0.000000
                       0.000000  0.000000  0.000000  0.000000  0.000000  0.000000
                       0.000000  0.000000  0.000000  0.000000  0.000000  0.000000
                       0.000000  0.000000  0.000000  0.000000  0.000000  0.000000
                       0.000000  0.000000  0.000000  0.000000  0.000000  0.000000
                       0.000000  0.000000  0.000000  0.000000  0.000000  0.000000
                       0.000000  0.000000  0.000000  0.000000  0.000000  0.000000
                       0.000000  0.000000  0.000000  0.000000  0.000000  0.000000
                       0.000000  0.000000  0.000000  0.000000  0.000000  0.000000
                       0.000000  0.000000  0.000000  0.000000  0.000000  0.000000
                       0.000000  0.000000  0.000000  0.000000  0.000000  0.000000
                       0.000000  0.000000  0.000000  0.000000  0.000000  0.000000
                       0.000000  0.000000  0.000000  0.000000  0.000000  0.000000
                       0.000000  0.000000  0.000000  0.000000  0.000000  0.000000
                       0.000000  0.000000  0.000000  0.000000  0.000000  0.000000
                       0.000000  0.000000  0.000000  0.000000  0.000000  0.000000
                       0.000000  0.000000  0.000000  0.000000  0.000000  0.000000
                       0.000000  0.000000  0.000000  0.000000  0.000000  0.000000
                       0.000000  0.000000  0.000000  0.000000  0.000000  0.000000
                       0.000000  0.000000  0.000000  0.000000  0.000000  0.000000
                       0.000000  0.000000  0.000000  0.000000  0.000000  0.000000
                       0.000000  0.000000  0.000000  0.000000  0.000000  0.000000
                       0.000000  0.000000  0.000000  0.000000  0.000000  0.000000
                       0.000000  0.000000  0.000000  0.000000  0.000000  0.000000
                       0.000000  0.000000  0.000000  0.000000  0.000000  0.000000
                       0.000000  0.000000  0.000000  0.000000  0.000000  0.000000
                       0.000000  0.000000  0.000000  0.000000  0.000000  0.000000
                       0.000000  0.000000  0.000000  0.000000  0.000000  0.000000
                       0.000000  0.000000  0.000000  0.000000  0.000000  0.000000
                       0.000000  0.000000  0.000000  0.000000  0.000000  0.000000
                       0.000000  0.000000  0.000000  0.000000  0.000000  0.000000
                       0.000000  0.000000  0.000000  0.000000  0.000000  0.000000
                       0.000000  0.000000  0.000000  0.000000  0.000000  0.000000
                       0.000000  0.000000  0.000000  0.000000  0.000000  0.000000
                       0.000000  0.000000  0.000000  0.000000  0.000000  0.000000
                       0.000000  0.000000  0.000000  0.000000  0.000000  0.000000
                       0.000000  0.000000  0.000000  0.000000  0.000000  0.000000
                       0.000000  0.000000  0.000000  0.000000  0.000000  0.000000
                       0.000000  0.000000  0.000000  0.000000  0.000000  0.000000
                       0.000000  0.000000  0.000000  0.000000  0.000000  0.000000
                       0.000000  0.000000  0.000000  0.000000  0.000000  0.000000
                       0.000000  0.000000  0.000000  0.000000  0.000000  0.000000
                       0.000000  0.000000  0.000000  0.000000  0.000000  0.000000
                       0.000000  0.000000  0.000000  0.000000  0.000000  0.000000
                       0.000000  0.000000  0.000000  0.000000  0.000000  0.000000
                       0.000000  0.000000  0.000000  0.000000  0.000000  0.000000
                       0.000000  0.000000  0.000000  0.000000  0.000000  0.000000
                       0.000000  0.000000  0.000000  0.000000  0.000000  0.000000
                       0.000000  0.000000  0.000000  0.000000  0.000000  0.000000
                       0.000000  0.000000  0.000000  0.000000  0.000000  0.000000
                       0.000000  0.000000  0.000000  0.000000  0.000000  0.000000
                       0.000000  0.000000  0.000000  0.000000  0.000000  0.000000
                       0.000000  0.000000  0.000000  0.000000  0.000000  0.000000
                       0.000000  0.000000  0.000000  0.000000  0.000000  0.000000
                       0.000000  0.000000  0.000000  0.000000  0.000000  0.000000
                       0.000000  0.000000  0.000000  0.000000  0.000000  0.000000
                       0.000000  0.000000  0.000000  0.000000  0.000000  0.000000
                       0.000000  0.000000  0.000000  0.000000  0.000000  0.000000
                       0.000000  0.000000  0.000000  0.000000  0.000000  0.000000
                       0.000000  0.000000  0.000000  0.000000  0.000000  0.000000
                       0.000000  0.000000  0.000000  0.000000  0.000000  0.000000
                       0.000000  0.000000  0.000000  0.000000  0.000000  0.000000
                       0.000000  0.000000  0.000000  0.000000  0.000000  0.000000
                       0.000000  0.000000  0.000000  0.000000  0.000000  0.000000
                       0.000000  0.000000  0.000000  0.000000  0.000000  0.000000
                       0.000000  0.000000  0.000000  0.000000  0.000000  0.000000
                       0.000000  0.000000  0.000000  0.000000  0.000000  0.000000
                       0.000000  0.000000  0.000000  0.000000  0.000000  0.000000
                       0.000000  0.000000  0.000000  0.000000  0.000000  0.000000
                       0.000000  0.000000  0.000000  0.000000  0.000000  0.000000
                       0.000000  0.000000  0.000000  0.000000  0.000000  0.000000
                       0.000000  0.000000  0.000000  0.000000  0.000000  0.000000
                       0.000000  0.000000  0.000000  0.000000  0.000000  0.000000
                       0.000000  0.000000  0.000000  0.000000  0.000000  0.000000
                       0.000000  0.000000  0.000000  0.000000  0.000000  0.000000
                       0.000000  0.000000  0.000000  0.000000  0.000000  0.000000
                       0.000000  0.000000  0.000000  0.000000  0.000000  0.000000
                       0.000000  0.000000  0.000000  0.000000  0.000000  0.000000
                       0.000000  0.000000  0.000000  0.000000  0.000000  0.000000
                       0.000000  0.000000  0.000000  0.000000  0.000000  0.000000
                       0.000000  0.000000  0.000000  0.000000  0.000000  0.000000
                       0.000000  0.000000  0.000000  0.000000  0.000000  0.000000
                       0.000000  0.000000  0.000000  0.000000  0.000000  0.000000
                       0.000000  0.000000  0.000000  0.000000  0.000000  0.000000
                       0.000000  0.000000  0.000000  0.000000  0.000000  0.000000
                       0.000000  0.000000  0.000000  0.000000  0.000000  0.000000
                       0.000000  0.000000  0.000000  0.000000  0.000000  0.000000
                       0.000000  0.000000  0.000000  0.000000  0.000000  0.000000
                       0.000000  0.000000  0.000000  0.000000  0.000000  0.000000
                       0.000000  0.000000  0.000000  0.000000  0.000000  0.000000
                       0.000000  0.000000  0.000000  0.000000  0.000000  0.000000
                       0.000000  0.000000  0.000000  0.000000  0.000000  0.000000
                       0.000000  0.000000  0.000000  0.000000  0.000000  0.000000
                       0.000000  0.000000  0.000000  0.000000  0.000000  0.000000
                       0.000000  0.000000  0.000000  0.000000  0.000000  0.000000
                       0.000000  0.000000  0.000000  0.000000  0.000000  0.000000
                       0.000000  0.000000  0.000000  0.000000  0.000000  0.000000
                       0.000000  0.000000  0.000000  0.000000  0.000000  0.000000
                       0.000000  0.000000  0.000000  0.000000  0.000000  0.000000
                       0.000000  0.000000  0.000000  0.000000  0.000000  0.000000
                       0.000000  0.000000  0.000000  0.000000  0.000000  0.000000
                       0.000000  0.000000  0.000000  0.000000  0.000000  0.000000
                       0.000000  0.000000  0.000000  0.000000  0.000000  0.000000
                       0.000000  0.000000  0.000000  0.000000  0.000000  0.000000
                       0.000000  0.000000  0.000000  0.000000  0.000000  0.000000
                       0.000000  0.000000  0.000000  0.000000  0.000000  0.000000
                       0.000000  0.000000  0.000000  0.000000  0.000000  0.000000
                       0.000000  0.000000  0.000000  0.000000  0.000000  0.000000
                       0.000000  0.000000  0.000000  0.000000  0.000000  0.000000
                       0.000000  0.000000  0.000000  0.000000  0.000000  0.000000
                       0.000000  0.000000  0.000000  0.000000  0.000000  0.000000
                       0.000000  0.000000  0.000000  0.000000  0.000000  0.000000
                       0.000000  0.000000  0.000000  0.000000  0.000000  0.000000
                       0.000000  0.000000  0.000000  0.000000  0.000000  0.000000
                       0.000000  0.000000  0.000000  0.000000  0.000000  0.000000
                       0.000000  0.000000  0.000000  0.000000  0.000000  0.000000
                       0.000000  0.000000  0.000000  0.000000  0.000000  0.000000
                       0.000000  0.000000  0.000000  0.000000  0.000000  0.000000
                       0.000000  0.000000  0.000000  0.000000  0.000000  0.000000
                       0.000000  0.000000  0.000000  0.000000  0.000000  0.000000
                       0.000000  0.000000  0.000000  0.000000  0.000000  0.000000
                       0.000000  0.000000  0.000000  0.000000  0.000000  0.000000
                       0.000000  0.000000  0.000000  0.000000  0.000000  0.000000
                       0.000000  0.000000  0.000000  0.000000  0.000000  0.000000
                       0.000000  0.000000  0.000000  0.000000  0.000000  0.000000
                       0.000000  0.000000  0.000000  0.000000  0.000000  0.000000
                       0.000000  0.000000  0.000000  0.000000  0.000000  0.000000
                       0.000000  0.000000  0.000000  0.000000  0.000000  0.000000
                       0.000000  0.000000  0.000000  0.000000  0.000000  0.000000
                       0.000000  0.000000  0.000000  0.000000  0.000000  0.000000
                       0.000000  0.000000  0.000000  0.000000  0.000000  0.000000
                       0.000000  0.000000  0.000000  0.000000  0.000000  0.000000
                       0.000000  0.000000  0.000000  0.000000  0.000000  0.000000
                       0.000000  0.000000  0.000000  0.000000  0.000000  0.000000
                       0.000000  0.000000  0.000000  0.000000  0.000000  0.000000
                       0.000000  0.000000  0.000000  0.000000  0.000000  0.000000
                       0.000000  0.000000  0.000000  0.000000  0.000000  0.000000
                       0.000000  0.000000  0.000000  0.000000  0.000000  0.000000
                       0.000000  0.000000  0.000000  0.000000  0.000000  0.000000
                       0.000000  0.000000  0.000000  0.000000  0.000000  0.000000
                       0.000000  0.000000  0.000000  0.000000  0.000000  0.000000
                       0.000000  0.000000  0.000000  0.000000  0.000000  0.000000
                       0.000000  0.000000  0.000000  0.000000  0.000000  0.000000
                       0.000000  0.000000  0.000000  0.000000  0.000000  0.000000
                       0.000000  0.000000  0.000000  0.000000  0.000000  0.000000
                       0.000000  0.000000  0.000000  0.000000  0.000000  0.000000
                       0.000000  0.000000  0.000000  0.000000  0.000000  0.000000
                       0.000000  0.000000  0.000000  0.000000  0.000000  0.000000
                       0.000000  0.000000  0.000000  0.000000  0.000000  0.000000
                       0.000000  0.000000  0.000000  0.000000  0.000000  0.000000
                       0.000000  0.000000  0.000000  0.000000  0.000000  0.000000
                       0.000000  0.000000  0.000000  0.000000  0.000000  0.000000
                       0.000000  0.000000  0.000000  0.000000  0.000000  0.000000
                       0.000000  0.000000  0.000000  0.000000  0.000000  0.000000
                       0.000000  0.000000  0.000000  0.000000  0.000000  0.000000
                       0.000000  0.000000  0.000000  0.000000  0.000000  0.000000
                       0.000000  0.000000  0.000000  0.000000  0.000000  0.000000
                       0.000000  0.000000  0.000000  0.000000  0.000000  0.000000
                       0.000000  0.000000  0.000000  0.000000  0.000000  0.000000
                       0.000000  0.000000  0.000000  0.000000  0.000000  0.000000
                       0.000000  0.000000  0.000000  0.000000  0.000000  0.000000
                       0.000000  0.000000  0.000000  0.000000  0.000000  0.000000
                       0.000000  0.000000  0.000000  0.000000  0.000000  0.000000
                       0.000000  0.000000  0.000000  0.000000  0.000000  0.000000
                       0.000000  0.000000  0.000000  0.000000  0.000000  0.000000
                       0.000000  0.000000  0.000000  0.000000  0.000000  0.000000
                       0.000000  0.000000  0.000000  0.000000  0.000000  0.000000
                       0.000000  0.000000  0.000000  0.000000  0.000000  0.000000
                       0.000000  0.000000  0.000000  0.000000  0.000000  0.000000
                       0.000000  0.000000  0.000000  0.000000  0.000000  0.000000
                       0.000000  0.000000  0.000000  0.000000  0.000000  0.000000
                       0.000000  0.000000  0.000000  0.000000  0.000000  0.000000
                       0.000000  0.000000  0.000000  0.000000  0.000000  0.000000
                       0.000000  0.000000  0.000000  0.000000  0.000000  0.000000
                       0.000000  0.000000  0.000000  0.000000  0.000000  0.000000
                       0.000000  0.000000  0.000000  0.000000  0.000000  0.000000
                       0.000000  0.000000  0.000000  0.000000  0.000000  0.000000
                       0.000000  0.000000  0.000000  0.000000  0.000000  0.000000
                       0.000000  0.000000  0.000000  0.000000  0.000000  0.000000
                       0.000000  0.000000  0.000000  0.000000  0.000000  0.000000
                       0.000000  0.000000  0.000000  0.000000  0.000000  0.000000
                       0.000000  0.000000  0.000000  0.000000  0.000000  0.000000
                       0.000000  0.000000  0.000000  0.000000  0.000000  0.000000
                       0.000000  0.000000  0.000000  0.000000  0.000000  0.000000
                       0.000000  0.000000  0.000000  0.000000  0.000000  0.000000
                       0.000000  0.000000  0.000000  0.000000  0.000000  0.000000
                       0.000000  0.000000  0.000000  0.000000  0.000000  0.000000
                       0.000000  0.000000  0.000000  0.000000  0.000000  0.000000
                       0.000000  0.000000  0.000000  0.000000  0.000000  0.000000
                       0.000000  0.000000  0.000000  0.000000  0.000000  0.000000
                       0.000000  0.000000  0.000000  0.000000  0.000000  0.000000
                       0.000000  0.000000  0.000000  0.000000  0.000000  0.000000
                       0.000000  0.000000  0.000000  0.000000  0.000000  0.000000
                       0.000000  0.000000  0.000000  0.000000  0.000000  0.000000
                       0.000000  0.000000  0.000000  0.000000  0.000000  0.000000
                       0.000000  0.000000  0.000000  0.000000  0.000000  0.000000
                       0.000000  0.000000  0.000000  0.000000  0.000000  0.000000
                       0.000000  0.000000  0.000000  0.000000  0.000000  0.000000
                       0.000000  0.000000  0.000000  0.000000  0.000000  0.000000
                       0.000000  0.000000  0.000000  0.000000  0.000000  0.000000
                       0.000000  0.000000  0.000000  0.000000  0.000000  0.000000
                       0.000000  0.000000  0.000000  0.000000  0.000000  0.000000
                       0.000000  0.000000  0.000000  0.000000  0.000000  0.000000
                       0.000000  0.000000  0.000000  0.000000  0.000000  0.000000
                       0.000000  0.000000  0.000000  0.000000  0.000000  0.000000
                       0.000000  0.000000  0.000000  0.000000  0.000000  0.000000
                       0.000000  0.000000  0.000000  0.000000  0.000000  0.000000
                       0.000000  0.000000  0.000000  0.000000  0.000000  0.000000
                       0.000000  0.000000  0.000000  0.000000  0.000000  0.000000
                       0.000000  0.000000  0.000000  0.000000  0.000000  0.000000
                       0.000000  0.000000  0.000000  0.000000  0.000000  0.000000
                       0.000000  0.000000  0.000000  0.000000  0.000000  0.000000
                       0.000000  0.000000  0.000000  0.000000  0.000000  0.000000
                       0.000000  0.000000  0.000000  0.000000  0.000000  0.000000
                       0.000000  0.000000  0.000000  0.000000  0.000000  0.000000
                       0.000000  0.000000  0.000000  0.000000  0.000000  0.000000
                       0.000000  0.000000  0.000000  0.000000  0.000000  0.000000
                       0.000000  0.000000  0.000000  0.000000  0.000000  0.000000
                       0.000000  0.000000  0.000000  0.000000  0.000000  0.000000
                       0.000000  0.000000  0.000000  0.000000  0.000000  0.000000
                       0.000000  0.000000  0.000000  0.000000  0.000000  0.000000
                       0.000000  0.000000  0.000000  0.000000  0.000000  0.000000
                       0.000000  0.000000  0.000000  0.000000  0.000000  0.000000
                       0.000000  0.000000  0.000000  0.000000  0.000000  0.000000
                       0.000000  0.000000  0.000000  0.000000  0.000000  0.000000
                       0.000000  0.000000  0.000000  0.000000  0.000000  0.000000
                       0.000000  0.000000  0.000000  0.000000  0.000000  0.000000
                       0.000000  0.000000  0.000000  0.000000  0.000000  0.000000
                       0.000000  0.000000  0.000000  0.000000  0.000000  0.000000
                       0.000000  0.000000  0.000000  0.000000  0.000000  0.000000
                       0.000000  0.000000  0.000000  0.000000  0.000000  0.000000
                       0.000000  0.000000  0.000000  0.000000  0.000000  0.000000
                       0.000000  0.000000  0.000000  0.000000  0.000000  0.000000
                       0.000000  0.000000  0.000000  0.000000  0.000000  0.000000
                       0.000000  0.000000  0.000000  0.000000  0.000000  0.000000
        optdriver3          3
        optdriver4          4
           ppmfrq3     6.13713734E-01 Hartree
           ppmfrq4     0.00000000E+00 Hartree
          spgroup          57
           symrel      1  0  0   0  1  0   0  0  1      -1  0  0   0 -1  0   0  0 -1
                      -1  0  0   0  1  0   0  0 -1       1  0  0   0 -1  0   0  0  1
                      -1  0  0   0 -1  0   0  0  1       1  0  0   0  1  0   0  0 -1
                       1  0  0   0 -1  0   0  0 -1      -1  0  0   0  1  0   0  0  1
            tnons      0.0000000  0.0000000  0.0000000    -0.0000000  0.0000000  0.0000000
                       0.5000000  0.5000000  0.0000000     0.5000000  0.5000000  0.0000000
                      -0.0000000  0.5000000  0.0000000     0.0000000  0.5000000  0.0000000
                       0.5000000  0.0000000  0.0000000     0.5000000  0.0000000  0.0000000
           toldfe      1.00000000E-08 Hartree
           tolsym      1.00000000E-04
            typat      1  1  1  1  1  1  1  1  1  1  1  1  1  1  1  1  1  1  1  1
                       1  1  1  1  1  1  1  1  1  1  1  1  2  2  2  2  2  2  2  2
          usekden           1
          vcutgeo      1.0000000  1.0000000  0.0000000
              wtk        0.02778    0.05556    0.05556    0.02778    0.05556    0.11111
                         0.11111    0.05556    0.05556    0.11111    0.11111    0.05556
                         0.02778    0.05556    0.05556    0.02778
           xangst      4.0200657419E+00  1.8285246137E+00  1.8189619946E+01
                       2.9250780542E-01  2.6687060456E+00  2.6810380054E+01
                       1.8637789682E+00  2.6687060456E+00  2.6810380054E+01
                       2.4487945791E+00  1.8285246137E+00  1.8189619946E+01
                       2.4487945791E+00  4.0771399433E+00  2.6810380054E+01
                       1.8637789682E+00  4.2009071597E-01  1.8189619946E+01
                       2.9250780542E-01  4.2009071597E-01  1.8189619946E+01
                       4.0200657419E+00  4.0771399433E+00  2.6810380054E+01
                       4.0448461619E+00  1.8749453844E+00  2.0620134630E+01
                       2.6772738547E-01  2.6222852749E+00  2.4379865370E+01
                       1.8885593882E+00  2.6222852749E+00  2.4379865370E+01
                       2.4240141592E+00  1.8749453844E+00  2.0620134630E+01
                       2.4240141592E+00  4.1235607140E+00  2.4379865370E+01
                       1.8885593882E+00  3.7366994524E-01  2.0620134630E+01
                       2.6772738547E-01  3.7366994524E-01  2.0620134630E+01
                       4.0448461619E+00  4.1235607140E+00  2.4379865370E+01
                       4.0437486753E+00  1.8735582678E+00  2.3126592582E+01
                       2.6882487204E-01  2.6236723915E+00  2.1873407418E+01
                       1.8874619016E+00  2.6236723915E+00  2.1873407418E+01
                       2.4251116458E+00  1.8735582678E+00  2.3126592582E+01
                       2.4251116458E+00  4.1221735974E+00  2.1873407418E+01
                       1.8874619016E+00  3.7505706185E-01  2.3126592582E+01
                       2.6882487204E-01  3.7505706185E-01  2.3126592582E+01
                       4.0437486753E+00  4.1221735974E+00  2.1873407418E+01
                       4.0359236766E+00  1.8573310566E+00  2.5635894280E+01
                       2.7664987080E-01  2.6398996027E+00  1.9364105720E+01
                       1.8796369028E+00  2.6398996027E+00  1.9364105720E+01
                       2.4329366445E+00  1.8573310566E+00  2.5635894280E+01
                       2.4329366445E+00  4.1059463862E+00  1.9364105720E+01
                       1.8796369028E+00  3.9128427303E-01  2.5635894280E+01
                       2.7664987080E-01  3.9128427303E-01  2.5635894280E+01
                       4.0359236766E+00  4.1059463862E+00  1.9364105720E+01
                       4.3134588900E+00  2.2175679753E+00  2.8048380942E+01
                      -8.8534263253E-04  2.2796626839E+00  1.6951619058E+01
                       2.1571721163E+00  2.2796626839E+00  1.6951619058E+01
                       2.1554014311E+00  2.2175679753E+00  2.8048380942E+01
                       2.1554014311E+00  4.4661833050E+00  1.6951619058E+01
                       2.1571721163E+00  3.1047354296E-02  2.8048380942E+01
                      -8.8534263253E-04  3.1047354296E-02  2.8048380942E+01
                       4.3134588900E+00  4.4661833050E+00  1.6951619058E+01
            xcart      7.5968232885E+00  3.4554107471E+00  3.4373400159E+01
                       5.5275964397E-01  5.0431235554E+00  5.0664275821E+01
                       3.5220318222E+00  5.0431235554E+00  5.0664275821E+01
                       4.6275511103E+00  3.4554107471E+00  3.4373400159E+01
                       4.6275511103E+00  7.7046778983E+00  5.0664275821E+01
                       3.5220318222E+00  7.9385640416E-01  3.4373400159E+01
                       5.5275964397E-01  7.9385640416E-01  3.4373400159E+01
                       7.5968232885E+00  7.7046778983E+00  5.0664275821E+01
                       7.6436514956E+00  3.5431332906E+00  3.8966407274E+01
                       5.0593143681E-01  4.9554010118E+00  4.6071268706E+01
                       3.5688600293E+00  4.9554010118E+00  4.6071268706E+01
                       4.5807229031E+00  3.5431332906E+00  3.8966407274E+01
                       4.5807229031E+00  7.7924004418E+00  4.6071268706E+01
                       3.5688600293E+00  7.0613386060E-01  3.8966407274E+01
                       5.0593143681E-01  7.0613386060E-01  3.8966407274E+01
                       7.6436514956E+00  7.7924004418E+00  4.6071268706E+01
                       7.6415775466E+00  3.5405120201E+00  4.3702926368E+01
                       5.0800538587E-01  4.9580222823E+00  4.1334749612E+01
                       3.5667860803E+00  4.9580222823E+00  4.1334749612E+01
                       4.5827968522E+00  3.5405120201E+00  4.3702926368E+01
                       4.5827968522E+00  7.7897791713E+00  4.1334749612E+01
                       3.5667860803E+00  7.0875513110E-01  4.3702926368E+01
                       5.0800538587E-01  7.0875513110E-01  4.3702926368E+01
                       7.6415775466E+00  7.7897791713E+00  4.1334749612E+01
                       7.6267904419E+00  3.5098470351E+00  4.8444819360E+01
                       5.2279249051E-01  4.9886872673E+00  3.6592856620E+01
                       3.5519989756E+00  4.9886872673E+00  3.6592856620E+01
                       4.5975839568E+00  3.5098470351E+00  4.8444819360E+01
                       4.5975839568E+00  7.7591141863E+00  3.6592856620E+01
                       3.5519989756E+00  7.3942011613E-01  4.8444819360E+01
                       5.2279249051E-01  7.3942011613E-01  4.8444819360E+01
                       7.6267904419E+00  7.7591141863E+00  3.6592856620E+01
                       8.1512559875E+00  4.1905961544E+00  5.3003758451E+01
                      -1.6730551093E-03  4.3079381480E+00  3.2033917529E+01
                       4.0764645212E+00  4.3079381480E+00  3.2033917529E+01
                       4.0731184112E+00  4.1905961544E+00  5.3003758451E+01
                       4.0731184112E+00  8.4398633056E+00  3.2033917529E+01
                       4.0764645212E+00  5.8670996771E-02  5.3003758451E+01
                      -1.6730551093E-03  5.8670996771E-02  5.3003758451E+01
                       8.1512559875E+00  8.4398633056E+00  3.2033917529E+01
             xred      9.3217325982E-01  4.0658902160E-01  4.0421377658E-01
                       6.7826740159E-02  5.9341097840E-01  5.9578622342E-01
                       4.3217325982E-01  5.9341097840E-01  5.9578622342E-01
                       5.6782674016E-01  4.0658902160E-01  4.0421377658E-01
                       5.6782674016E-01  9.0658902160E-01  5.9578622342E-01
                       4.3217325982E-01  9.3410978400E-02  4.0421377658E-01
                       6.7826740159E-02  9.3410978400E-02  4.0421377658E-01
                       9.3217325982E-01  9.0658902160E-01  5.9578622342E-01
                       9.3791934616E-01  4.1691110073E-01  4.5822521400E-01
                       6.2080653819E-02  5.8308889927E-01  5.4177478600E-01
                       4.3791934616E-01  5.8308889927E-01  5.4177478600E-01
                       5.6208065382E-01  4.1691110073E-01  4.5822521400E-01
                       5.6208065382E-01  9.1691110073E-01  5.4177478600E-01
                       4.3791934616E-01  8.3088899271E-02  4.5822521400E-01
                       6.2080653819E-02  8.3088899271E-02  4.5822521400E-01
                       9.3791934616E-01  9.1691110073E-01  5.4177478600E-01
                       9.3766486086E-01  4.1660266278E-01  5.1392427961E-01
                       6.2335139119E-02  5.8339733722E-01  4.8607572039E-01
                       4.3766486086E-01  5.8339733722E-01  4.8607572039E-01
                       5.6233513912E-01  4.1660266278E-01  5.1392427961E-01
                       5.6233513912E-01  9.1660266278E-01  4.8607572039E-01
                       4.3766486086E-01  8.3397337221E-02  5.1392427961E-01
                       6.2335139119E-02  8.3397337221E-02  5.1392427961E-01
                       9.3766486086E-01  9.1660266278E-01  4.8607572039E-01
                       9.3585039934E-01  4.1299439529E-01  5.6968653955E-01
                       6.4149600640E-02  5.8700560471E-01  4.3031346045E-01
                       4.3585039934E-01  5.8700560471E-01  4.3031346045E-01
                       5.6414960064E-01  4.1299439529E-01  5.6968653955E-01
                       5.6414960064E-01  9.1299439529E-01  4.3031346045E-01
                       4.3585039934E-01  8.7005604710E-02  5.6968653955E-01
                       6.4149600640E-02  8.7005604710E-02  5.6968653955E-01
                       9.3585039934E-01  9.1299439529E-01  4.3031346045E-01
                       1.0002052933E+00  4.9309633936E-01  6.2329735426E-01
                      -2.0529334115E-04  5.0690366064E-01  3.7670264574E-01
                       5.0020529332E-01  5.0690366064E-01  3.7670264574E-01
                       4.9979470666E-01  4.9309633936E-01  6.2329735426E-01
                       4.9979470666E-01  9.9309633936E-01  3.7670264574E-01
                       5.0020529332E-01  6.9036606412E-03  6.2329735426E-01
                      -2.0529334115E-04  6.9036606412E-03  6.2329735426E-01
                       1.0002052933E+00  9.9309633936E-01  3.7670264574E-01
            znucl        6.00000    9.00000

================================================================================

 chkinp: Checking input parameters for consistency, jdtset=   3.

 chkinp: Checking input parameters for consistency, jdtset=   4.

================================================================================
== DATASET  3 ==================================================================
-   mpi_nproc: 64, omp_nthreads: -1 (-1 if OMP is not activated)


--- !DatasetInfo
iteration_state: {dtset: 3, }
dimensions: {natom: 40, nkpt: 16, mband: 1092, nsppol: 1, nspinor: 1, nspden: 1, mpw: 99620, }
cutoff_energies: {ecut:  50.0, pawecutdg:  -1.0, }
electrons: {nelect:   1.84000000E+02, charge:   0.00000000E+00, occopt:   1.00000000E+00, tsmear:   1.00000000E-02, }
meta: {optdriver: 3, gwcalctyp: 0, }
...

 mkfilename : getwfk/=0, take file _WFK from output of DATASET   2.

 SCREENING: Calculation of the susceptibility and dielectric matrices 

 Based on a program developped by R.W. Godby, V. Olevano, G. Onida, and L. Reining.
 Incorporated in ABINIT by V. Olevano, G.-M. Rignanese, and M. Torrent.
.Using single precision arithmetic ; gwpc =  4

 Real(R)+Recip(G) space primitive vectors, cartesian coordinates (Bohr,Bohr^-1):
 R(1)=  8.1495829  0.0000000  0.0000000  G(1)=  0.1227057  0.0000000  0.0000000
 R(2)=  0.0000000  8.4985343  0.0000000  G(2)=  0.0000000  0.1176673  0.0000000
 R(3)=  0.0000000  0.0000000 85.0376760  G(3)=  0.0000000  0.0000000  0.0117595
 Unit cell volume ucvol=  5.8896678E+03 bohr^3
 Angles (23,13,12)=  9.00000000E+01  9.00000000E+01  9.00000000E+01 degrees

--- Pseudopotential description ------------------------------------------------
- pspini: atom type   1  psp file is ../6c.4.hgh
- pspatm: opening atomic psp file    ../6c.4.hgh
- Hartwigsen-Goedecker-Hutter psp for C,  from PRB58, 3641 (1998)
-  6.00000   4.00000     10605                znucl, zion, pspdat
    3    1    1    0      2001   0.00000      pspcod,pspxc,lmax,lloc,mmax,r2well
 rloc=   0.3488300
 cc1 =  -8.5137710; cc2 =   1.2284320; cc3 =   0.0000000; cc4 =   0.0000000
 rrs =   0.3045530; h11s=   9.5228420; h22s=   0.0000000; h33s=   0.0000000
 rrp =   0.2326770; h11p=   0.0000000; h22p=   0.0000000; h33p=   0.0000000
                    k11p=   0.0041040; k22p=   0.0000000; k33p=   0.0000000
-  Local part computed in reciprocal space.

 pspatm : COMMENT -
  the projectors are not normalized,
  so that the KB energies are not consistent with 
  definition in PRB44, 8503 (1991). 
  However, this does not influence the results obtained hereafter.
  pspatm : epsatm=   -0.16969744
         --- l  ekb(1:nproj) -->
             0    0.953587
 pspatm: atomic psp has been read  and splines computed

- pspini: atom type   2  psp file is ../9f.7.hgh
- pspatm: opening atomic psp file    ../9f.7.hgh
- Hartwigsen-Goedecker-Hutter psp for F,  from PRB58, 3641 (1998)
-  9.00000   7.00000     10605                znucl, zion, pspdat
    3    1    1    0      2001   0.00000      pspcod,pspxc,lmax,lloc,mmax,r2well
 rloc=   0.2185250
 cc1 = -21.3073610; cc2 =   3.0728690; cc3 =   0.0000000; cc4 =   0.0000000
 rrs =   0.1955670; h11s=  23.5849420; h22s=   0.0000000; h33s=   0.0000000
 rrp =   0.1742680; h11p=   0.0000000; h22p=   0.0000000; h33p=   0.0000000
                    k11p=   0.0151060; k22p=   0.0000000; k33p=   0.0000000
-  Local part computed in reciprocal space.

 pspatm : COMMENT -
  the projectors are not normalized,
  so that the KB energies are not consistent with 
  definition in PRB44, 8503 (1991). 
  However, this does not influence the results obtained hereafter.
  pspatm : epsatm=    0.11349172
         --- l  ekb(1:nproj) -->
             0    0.625355
 pspatm: atomic psp has been read  and splines computed

  -8.32118732E+02                                ecore*ucvol(ha*bohr**3)
--------------------------------------------------------------------------------

 ==== K-mesh for the wavefunctions ====
 Number of points in the irreducible wedge :    16
 Reduced coordinates and weights : 

     1)     0.00000000E+00  0.00000000E+00  0.00000000E+00       0.02778
     2)     1.66666667E-01  0.00000000E+00  0.00000000E+00       0.05556
     3)     3.33333333E-01  0.00000000E+00  0.00000000E+00       0.05556
     4)     5.00000000E-01  0.00000000E+00  0.00000000E+00       0.02778
     5)     0.00000000E+00  1.66666667E-01  0.00000000E+00       0.05556
     6)     1.66666667E-01  1.66666667E-01  0.00000000E+00       0.11111
     7)     3.33333333E-01  1.66666667E-01  0.00000000E+00       0.11111
     8)     5.00000000E-01  1.66666667E-01  0.00000000E+00       0.05556
     9)     0.00000000E+00  3.33333333E-01  0.00000000E+00       0.05556
    10)     1.66666667E-01  3.33333333E-01  0.00000000E+00       0.11111
    11)     3.33333333E-01  3.33333333E-01  0.00000000E+00       0.11111
    12)     5.00000000E-01  3.33333333E-01  0.00000000E+00       0.05556
    13)     0.00000000E+00  5.00000000E-01  0.00000000E+00       0.02778
    14)     1.66666667E-01  5.00000000E-01  0.00000000E+00       0.05556
    15)     3.33333333E-01  5.00000000E-01  0.00000000E+00       0.05556
    16)     5.00000000E-01  5.00000000E-01  0.00000000E+00       0.02778

 Together with  8 symmetry operations and time-reversal symmetry 
 yields    36 points in the full Brillouin Zone.


 ==== Q-mesh for the screening function ====
 Number of points in the irreducible wedge :    16
 Reduced coordinates and weights : 

     1)     0.00000000E+00  0.00000000E+00  0.00000000E+00       0.02778
     2)     1.66666667E-01  0.00000000E+00  0.00000000E+00       0.05556
     3)     3.33333333E-01  0.00000000E+00  0.00000000E+00       0.05556
     4)     5.00000000E-01  0.00000000E+00  0.00000000E+00       0.02778
     5)     0.00000000E+00  1.66666667E-01  0.00000000E+00       0.05556
     6)     1.66666667E-01  1.66666667E-01  0.00000000E+00       0.11111
     7)     3.33333333E-01  1.66666667E-01  0.00000000E+00       0.11111
     8)     5.00000000E-01  1.66666667E-01  0.00000000E+00       0.05556
     9)     0.00000000E+00  3.33333333E-01  0.00000000E+00       0.05556
    10)     1.66666667E-01  3.33333333E-01  0.00000000E+00       0.11111
    11)     3.33333333E-01  3.33333333E-01  0.00000000E+00       0.11111
    12)     5.00000000E-01  3.33333333E-01  0.00000000E+00       0.05556
    13)     0.00000000E+00  5.00000000E-01  0.00000000E+00       0.02778
    14)     1.66666667E-01  5.00000000E-01  0.00000000E+00       0.05556
    15)     3.33333333E-01  5.00000000E-01  0.00000000E+00       0.05556
    16)     5.00000000E-01  5.00000000E-01  0.00000000E+00       0.02778

 Together with  8 symmetry operations and time-reversal symmetry 
 yields    36 points in the full Brillouin Zone.


 setmesh: FFT mesh size selected  =    36x   36x  360
          total number of points  =       466560


- screening: taking advantage of time-reversal symmetry 
- Maximum band index for partially occupied states nbvw = 92
- Remaining bands to be divided among processors   nbcw = 1000
- Number of bands treated by each node ~15

 Number of electrons calculated from density =  184.0000; Expected =  184.0000
 average of density, n =  0.031241
 r_s =    1.9697
 omega_plasma =   17.0498 [eV]


 calculating chi0 at frequencies [eV] :
  1    0.000000E+00    0.000000E+00
  2    0.000000E+00    1.670000E+01


--------------------------------------------------------------------------------
  q-point number  1        q = ( 0.000000, 0.000000, 0.000000) [r.l.u.]
--------------------------------------------------------------------------------
  chi0(G,G') at the    1 th omega   0.0000   0.0000 [eV]
       1       2       3       4       5       6       7       8       9
    1  -0.000  -0.007   0.007  -0.006   0.006   0.000  -0.000   0.002  -0.002
       -0.000   0.000   0.000   0.000   0.000  -0.000  -0.000  -0.000  -0.000

    2  -0.007-206.943 145.354-226.284  85.972 -57.728 -35.618  65.885 -39.903
       -0.000   0.000   0.214   0.167   0.171   0.071  -0.156  -0.180  -0.188

  chi0(G,G') at the    2 th omega   0.0000  16.7000 [eV]
       1       2       3       4       5       6       7       8       9
    1  -0.000  -0.000   0.000  -0.000   0.000   0.000  -0.000   0.000  -0.000
       -0.000   0.000   0.000   0.000   0.000  -0.000  -0.000  -0.000  -0.000

    2  -0.000  -2.505   0.212  -3.372  -1.069  -0.577  -0.588   2.010   1.080
       -0.000   0.000   0.000   0.002  -0.002   0.001  -0.001  -0.004   0.003

 For q-point:  0.000010 0.000020 0.000030
  dielectric constant =   1.0031
  dielectric constant without local fields =   1.0048

  Average fulfillment of the sum rule on Im[epsilon] for q-point    1 :    187.09  [%]
  Heads and wings of the symmetrical epsilon^-1(G,G') 

   Upper and lower wings at the    1 th omega   0.0000   0.0000 [eV]
       1       2       3       4       5       6       7       8       9
      0.997  -0.002   0.002  -0.000   0.000   0.000  -0.000   0.000  -0.000
     -0.000   0.000   0.000   0.000   0.000  -0.000  -0.000  -0.000  -0.000
       1       2       3       4       5       6       7       8       9
      0.997  -0.002   0.002  -0.000   0.000   0.000  -0.000   0.000  -0.000
     -0.000  -0.000  -0.000  -0.000  -0.000   0.000   0.000   0.000   0.000


   Upper and lower wings at the    2 th omega   0.0000  16.7000 [eV]
       1       2       3       4       5       6       7       8       9
      1.000  -0.001   0.001  -0.000   0.000   0.000  -0.000   0.000  -0.000
      0.000   0.000   0.000   0.000   0.000  -0.000  -0.000  -0.000  -0.000
       1       2       3       4       5       6       7       8       9
      1.000  -0.001   0.001  -0.000   0.000   0.000  -0.000   0.000  -0.000
      0.000  -0.000  -0.000  -0.000  -0.000   0.000   0.000   0.000   0.000




--------------------------------------------------------------------------------
  q-point number  2        q = ( 0.166667, 0.000000, 0.000000) [r.l.u.]
--------------------------------------------------------------------------------
  chi0(G,G') at the    1 th omega   0.0000   0.0000 [eV]
       1       2       3       4       5       6       7       8       9
    1-339.483-226.271-226.271 -17.365 -17.365  73.177  73.177  18.339  18.339
        0.000  -1.341   1.341  -2.345   2.345  -2.323   2.323  -1.142   1.142

    2-226.271-471.115 111.603-364.791 210.330 -70.988  82.907  71.285 -19.011
        1.341   0.000   4.502   0.339   5.322  -0.375   2.203  -1.574  -0.672

  chi0(G,G') at the    2 th omega   0.0000  16.7000 [eV]
       1       2       3       4       5       6       7       8       9
    1  -7.789  -5.092  -5.092  -0.211  -0.211   1.698   1.698   0.223   0.223
        0.000   0.049  -0.049  -0.017   0.017  -0.069   0.069   0.016  -0.016

    2  -5.092 -10.109  -0.020  -8.212   0.707  -0.735  -0.311   3.567   0.001
       -0.049   0.000   0.020   0.060   0.062  -0.009  -0.029  -0.082  -0.086

  Average fulfillment of the sum rule on Im[epsilon] for q-point    2 :     96.89  [%]


--------------------------------------------------------------------------------
  q-point number  3        q = ( 0.333333, 0.000000, 0.000000) [r.l.u.]
--------------------------------------------------------------------------------
  chi0(G,G') at the    1 th omega   0.0000   0.0000 [eV]
       1       2       3       4       5       6       7       8       9
    1-314.659-205.240-205.240  -8.003  -8.003  68.030  68.030   8.321   8.321
        0.000   1.783  -1.783   1.153  -1.153  -0.423   0.423  -0.368   0.368

    2-205.240-393.516  57.496-280.306 112.937 -16.059  -3.528  95.100 -62.372
       -1.783   0.000  -2.053   0.866  -1.280  -0.394  -1.049  -1.255  -0.826

  chi0(G,G') at the    2 th omega   0.0000  16.7000 [eV]
       1       2       3       4       5       6       7       8       9
    1 -27.889 -18.240 -18.240  -0.776  -0.776   6.070   6.070   0.810   0.810
        0.000   0.089  -0.089  -0.005   0.005  -0.107   0.107  -0.015   0.015

    2 -18.240 -29.768  -0.631 -20.762   5.263  -1.176   0.403   7.600  -2.756
       -0.089   0.000   0.020   0.107   0.124   0.015   0.021  -0.107  -0.104

  Average fulfillment of the sum rule on Im[epsilon] for q-point    3 :     94.83  [%]


--------------------------------------------------------------------------------
  q-point number  4        q = ( 0.500000, 0.000000, 0.000000) [r.l.u.]
--------------------------------------------------------------------------------
  chi0(G,G') at the    1 th omega   0.0000   0.0000 [eV]
       1       2       3       4       5       6       7       8       9
    1-322.468-209.268-209.268  -6.301  -6.301  69.708  69.708   6.437   6.437
        0.000   2.711  -2.711   2.426  -2.426   0.478  -0.478  -0.161   0.161

    2-209.268-339.328  -2.060-232.452  64.086 -16.036  -3.529  74.949 -43.083
       -2.711   0.000  -2.734   1.783  -0.073   0.864   1.790  -0.492   1.091

  chi0(G,G') at the    2 th omega   0.0000  16.7000 [eV]
       1       2       3       4       5       6       7       8       9
    1 -53.635 -35.076 -35.076  -1.492  -1.492  11.662  11.662   1.551   1.551
        0.000   0.043  -0.043  -0.027   0.027  -0.091   0.091  -0.019   0.019

    2 -35.076 -55.032  -1.394 -36.946  11.059  -1.766   1.272  12.814  -6.252
       -0.043   0.000   0.048   0.071   0.110   0.009   0.010  -0.085  -0.096

  Average fulfillment of the sum rule on Im[epsilon] for q-point    4 :     94.23  [%]


--------------------------------------------------------------------------------
  q-point number  5        q = ( 0.000000, 0.166667, 0.000000) [r.l.u.]
--------------------------------------------------------------------------------
  chi0(G,G') at the    1 th omega   0.0000   0.0000 [eV]
       1       2       3       4       5       6       7       8       9
    1-368.105-237.517-237.517  -4.748  -4.748  79.742  79.742   5.183   5.183
        0.000   0.601  -0.601   0.335  -0.334  -0.356   0.356  -0.491   0.491

    2-237.517-370.737  -0.721-238.896  84.088  -3.780   5.590  80.619 -50.648
       -0.601   0.000  -0.775   0.299  -0.498  -0.035  -0.192  -0.307   0.011

  chi0(G,G') at the    2 th omega   0.0000  16.7000 [eV]
       1       2       3       4       5       6       7       8       9
    1  -7.179  -4.701  -4.701  -0.210  -0.210   1.562   1.562   0.218   0.218
        0.000  -0.007   0.007  -0.002   0.002   0.007  -0.007   0.005  -0.005

    2  -4.701  -9.514  -0.017  -7.843   0.564  -0.738  -0.319   3.443   0.094
        0.007   0.000   0.002  -0.005  -0.010  -0.002  -0.007   0.002   0.008

  Average fulfillment of the sum rule on Im[epsilon] for q-point    5 :     96.83  [%]


--------------------------------------------------------------------------------
  q-point number  6        q = ( 0.166667, 0.166667, 0.000000) [r.l.u.]
--------------------------------------------------------------------------------
  chi0(G,G') at the    1 th omega   0.0000   0.0000 [eV]
       1       2       3       4       5       6       7       8       9
    1-277.223-180.106-180.106  -5.702  -5.702  60.085  60.085   5.883   5.883
        0.000   0.727  -0.727   1.196  -1.196   1.228  -1.228   0.796  -0.796

    2-180.106-353.323  44.247-263.212  82.893 -24.722 -17.010  87.470 -55.169
       -0.727   0.000   0.358   1.218   1.471   0.770   0.885  -0.557  -0.240

  chi0(G,G') at the    2 th omega   0.0000  16.7000 [eV]
       1       2       3       4       5       6       7       8       9
    1 -14.438  -9.443  -9.443  -0.402  -0.402   3.144   3.144   0.420   0.420
        0.000  -0.009   0.009  -0.002   0.002   0.010  -0.010   0.007  -0.007

    2  -9.443 -16.607  -0.226 -12.359   2.216  -0.883  -0.069   4.898  -0.912
        0.009   0.000   0.001  -0.009  -0.014  -0.004  -0.010   0.005   0.010

  Average fulfillment of the sum rule on Im[epsilon] for q-point    6 :     95.85  [%]


--------------------------------------------------------------------------------
  q-point number  7        q = ( 0.333333, 0.166667, 0.000000) [r.l.u.]
--------------------------------------------------------------------------------
  chi0(G,G') at the    1 th omega   0.0000   0.0000 [eV]
       1       2       3       4       5       6       7       8       9
    1 -97.827 -68.800 -68.800 -10.869 -10.869  21.964  21.964  11.205  11.205
        0.000   6.555  -6.555   5.248  -5.248  -0.625   0.625  -2.866   2.866

    2 -68.800-191.064  32.404-181.823  23.526 -44.753 -24.836  56.729 -23.512
       -6.555   0.000 -10.113   2.069  -6.076  -0.251   0.287  -1.439   1.799

  chi0(G,G') at the    2 th omega   0.0000  16.7000 [eV]
       1       2       3       4       5       6       7       8       9
    1 -33.277 -21.760 -21.760  -0.919  -0.919   7.243   7.243   0.959   0.959
        0.000   0.018  -0.018   0.011  -0.011  -0.007   0.007  -0.010   0.010

    2 -21.760 -35.049  -0.785 -24.137   6.481  -1.291   0.581   8.689  -3.495
       -0.018   0.000  -0.010   0.018   0.011   0.010   0.017  -0.007   0.007

  Average fulfillment of the sum rule on Im[epsilon] for q-point    7 :     94.48  [%]


--------------------------------------------------------------------------------
  q-point number  8        q = ( 0.500000, 0.166667, 0.000000) [r.l.u.]
--------------------------------------------------------------------------------
  chi0(G,G') at the    1 th omega   0.0000   0.0000 [eV]
       1       2       3       4       5       6       7       8       9
    1-349.567-227.771-227.771  -8.524  -8.524  75.452  75.452   8.788   8.788
        0.000   0.431  -0.431   0.328  -0.328  -0.321   0.321  -1.067   1.067

    2-227.771-365.319  13.791-231.805 103.749  12.859  29.584 104.140 -30.614
       -0.431   0.000  -1.322  -0.415  -2.105  -1.171  -2.316  -1.205  -1.628

  chi0(G,G') at the    2 th omega   0.0000  16.7000 [eV]
       1       2       3       4       5       6       7       8       9
    1 -57.634 -37.684 -37.684  -1.590  -1.590  12.531  12.531   1.653   1.653
        0.000   0.030  -0.030  -0.003   0.003  -0.046   0.046  -0.024   0.024

    2 -37.684 -58.963  -1.499 -39.463  11.956  -1.849   1.391  13.629  -6.798
       -0.030   0.000   0.012   0.040   0.056   0.012   0.022  -0.038  -0.038

  Average fulfillment of the sum rule on Im[epsilon] for q-point    8 :     94.15  [%]


--------------------------------------------------------------------------------
  q-point number  9        q = ( 0.000000, 0.333333, 0.000000) [r.l.u.]
--------------------------------------------------------------------------------
  chi0(G,G') at the    1 th omega   0.0000   0.0000 [eV]
       1       2       3       4       5       6       7       8       9
    1-328.112-212.380-212.380  -5.308  -5.308  71.292  71.292   5.799   5.799
        0.000   1.949  -1.949   1.438  -1.438  -0.339   0.339  -0.724   0.724

    2-212.380-382.635  30.154-273.136  85.227 -24.192 -16.236  82.390 -63.544
       -1.949   0.000  -2.376   1.066  -1.110   0.179  -0.014  -0.806   0.028

  chi0(G,G') at the    2 th omega   0.0000  16.7000 [eV]
       1       2       3       4       5       6       7       8       9
    1 -25.986 -17.021 -17.021  -0.773  -0.773   5.644   5.644   0.792   0.792
        0.000  -0.010   0.010  -0.008   0.008   0.002  -0.002   0.006  -0.006

    2 -17.021 -27.911  -0.624 -19.606   4.817  -1.185   0.374   7.209  -2.469
        0.010   0.000   0.014  -0.003   0.005  -0.000  -0.003   0.001   0.002

  Average fulfillment of the sum rule on Im[epsilon] for q-point    9 :     94.94  [%]


--------------------------------------------------------------------------------
  q-point number 10        q = ( 0.166667, 0.333333, 0.000000) [r.l.u.]
--------------------------------------------------------------------------------
  chi0(G,G') at the    1 th omega   0.0000   0.0000 [eV]
       1       2       3       4       5       6       7       8       9
    1-750.954-481.322-481.322  -6.195  -6.195 157.049 157.049   1.656   1.656
        0.000  -1.928   1.928  -0.570   0.570   1.198  -1.198   0.126  -0.126

    2-481.322-432.585-249.062-162.893   6.617  39.719  60.200  42.893 -17.548
        1.928   0.000   2.437  -0.156   0.517   0.856  -0.661   0.272   0.270

  chi0(G,G') at the    2 th omega   0.0000  16.7000 [eV]
       1       2       3       4       5       6       7       8       9
    1 -31.940 -20.912 -20.912  -0.932  -0.932   6.939   6.939   0.959   0.959
        0.000  -0.002   0.002  -0.000   0.000   0.004  -0.004   0.005  -0.005

    2 -20.912 -33.743  -0.796 -23.331   6.164  -1.312   0.574   8.409  -3.286
        0.002   0.000  -0.000  -0.001  -0.006  -0.001  -0.005   0.001   0.007

  Average fulfillment of the sum rule on Im[epsilon] for q-point   10 :     94.54  [%]


--------------------------------------------------------------------------------
  q-point number 11        q = ( 0.333333, 0.333333, 0.000000) [r.l.u.]
--------------------------------------------------------------------------------
  chi0(G,G') at the    1 th omega   0.0000   0.0000 [eV]
       1       2       3       4       5       6       7       8       9
    1-278.249-180.825-180.825  -5.822  -5.822  60.326  60.326   6.152   6.152
        0.000   1.712  -1.712   1.308  -1.308  -0.168   0.168  -0.463   0.463

    2-180.825-322.103  23.647-227.679  74.633 -15.464  -5.529  76.131 -45.756
       -1.712   0.000  -3.287   0.101  -3.060  -0.857  -1.609  -1.068  -0.584

  chi0(G,G') at the    2 th omega   0.0000  16.7000 [eV]
       1       2       3       4       5       6       7       8       9
    1 -47.667 -31.179 -31.179  -1.337  -1.337  10.360  10.360   1.382   1.382
        0.000   0.005  -0.005   0.002  -0.002  -0.000   0.000   0.003  -0.003

    2 -31.179 -49.170  -1.229 -33.193   9.712  -1.639   1.076  11.596  -5.441
       -0.005   0.000  -0.001   0.005   0.002   0.001   0.001  -0.002   0.004

  Average fulfillment of the sum rule on Im[epsilon] for q-point   11 :     94.11  [%]


--------------------------------------------------------------------------------
  q-point number 12        q = ( 0.500000, 0.333333, 0.000000) [r.l.u.]
--------------------------------------------------------------------------------
  chi0(G,G') at the    1 th omega   0.0000   0.0000 [eV]
       1       2       3       4       5       6       7       8       9
    1-395.810-256.372-256.372  -6.992  -6.992  85.396  85.396   7.365   7.365
        0.000  -0.682   0.682  -0.700   0.700  -0.126   0.126   0.324  -0.324

    2-256.372-382.028 -15.338-240.341  83.400  -0.068  14.682  85.841 -44.177
        0.682   0.000   0.899  -0.608  -0.439  -1.341  -2.694  -1.721  -3.390

  chi0(G,G') at the    2 th omega   0.0000  16.7000 [eV]
       1       2       3       4       5       6       7       8       9
    1 -68.511 -44.786 -44.786  -1.876  -1.876  14.888  14.888   1.944   1.944
        0.000   0.044  -0.044   0.013  -0.013  -0.036   0.036  -0.022   0.022

    2 -44.786 -69.667  -1.799 -46.332  14.387  -2.093   1.723  15.848  -8.268
       -0.044   0.000  -0.010   0.045   0.044   0.015   0.030  -0.032  -0.020

  Average fulfillment of the sum rule on Im[epsilon] for q-point   12 :     93.77  [%]


--------------------------------------------------------------------------------
  q-point number 13        q = ( 0.000000, 0.500000, 0.000000) [r.l.u.]
--------------------------------------------------------------------------------
  chi0(G,G') at the    1 th omega   0.0000   0.0000 [eV]
       1       2       3       4       5       6       7       8       9
    1-325.221-210.637-210.637  -5.463  -5.463  70.707  70.707   5.935   5.935
        0.000   1.729  -1.729   1.387  -1.387  -0.028   0.028  -0.345   0.345

    2-210.637-302.477  -1.689-171.253  93.364  18.576  28.483  67.817 -40.324
       -1.729   0.000 -14.148  -6.073 -21.681  -6.544 -13.093  -0.047   1.050

  chi0(G,G') at the    2 th omega   0.0000  16.7000 [eV]
       1       2       3       4       5       6       7       8       9
    1 -50.675 -33.177 -33.177  -1.483  -1.483  10.994  10.994   1.512   1.512
        0.000  -0.002   0.002  -0.015   0.015  -0.017   0.017   0.003  -0.003

    2 -33.177 -52.132  -1.380 -35.128  10.366  -1.771   1.220  12.193  -5.815
        0.002   0.000   0.023   0.008   0.023  -0.002  -0.006  -0.015  -0.022

  Average fulfillment of the sum rule on Im[epsilon] for q-point   13 :     94.30  [%]


--------------------------------------------------------------------------------
  q-point number 14        q = ( 0.166667, 0.500000, 0.000000) [r.l.u.]
--------------------------------------------------------------------------------
  chi0(G,G') at the    1 th omega   0.0000   0.0000 [eV]
       1       2       3       4       5       6       7       8       9
    1-378.797-245.810-245.810  -7.789  -7.789  80.688  80.688   6.473   6.473
        0.000   1.784  -1.784   1.325  -1.325  -0.177   0.177  -0.408   0.408

    2-245.810-405.042  23.004-264.373 109.203  -4.085   8.496  88.769 -59.450
       -1.784   0.000  -2.606   0.640  -1.717  -0.186  -0.458  -0.686   0.029

  chi0(G,G') at the    2 th omega   0.0000  16.7000 [eV]
       1       2       3       4       5       6       7       8       9
    1 -55.155 -36.098 -36.098  -1.593  -1.593  11.968  11.968   1.627   1.627
        0.000   0.007  -0.007  -0.005   0.005  -0.014   0.014  -0.001   0.001

    2 -36.098 -56.534  -1.497 -37.944  11.373  -1.862   1.354  13.105  -6.428
       -0.007   0.000   0.008   0.012   0.016   0.001  -0.000  -0.013  -0.013

  Average fulfillment of the sum rule on Im[epsilon] for q-point   14 :     94.18  [%]


--------------------------------------------------------------------------------
  q-point number 15        q = ( 0.333333, 0.500000, 0.000000) [r.l.u.]
[...]
                       0.000000  0.000000  0.000000  0.000000  0.000000  0.000000
                       0.000000  0.000000  0.000000  0.000000  0.000000  0.000000
                       0.000000  0.000000  0.000000  0.000000  0.000000  0.000000
                       0.000000  0.000000  0.000000  0.000000  0.000000  0.000000
                       0.000000  0.000000  0.000000  0.000000  0.000000  0.000000
                       0.000000  0.000000  0.000000  0.000000  0.000000  0.000000
                       0.000000  0.000000  0.000000  0.000000  0.000000  0.000000
                       0.000000  0.000000  0.000000  0.000000  0.000000  0.000000
                       0.000000  0.000000  0.000000  0.000000  0.000000  0.000000
                       0.000000  0.000000  0.000000  0.000000  0.000000  0.000000
                       0.000000  0.000000  0.000000  0.000000  0.000000  0.000000
                       0.000000  0.000000  0.000000  0.000000  0.000000  0.000000
                       0.000000  0.000000  0.000000  0.000000  0.000000  0.000000
                       0.000000  0.000000  0.000000  0.000000  0.000000  0.000000
                       0.000000  0.000000  0.000000  0.000000  0.000000  0.000000
                       0.000000  0.000000  0.000000  0.000000  0.000000  0.000000
                       0.000000  0.000000  0.000000  0.000000  0.000000  0.000000
                       0.000000  0.000000  0.000000  0.000000  0.000000  0.000000
                       0.000000  0.000000  0.000000  0.000000  0.000000  0.000000
                       0.000000  0.000000  0.000000  0.000000  0.000000  0.000000
                       0.000000  0.000000  0.000000  0.000000  0.000000  0.000000
                       0.000000  0.000000  0.000000  0.000000  0.000000  0.000000
                       0.000000  0.000000  0.000000  0.000000  0.000000  0.000000
                       0.000000  0.000000  0.000000  0.000000  0.000000  0.000000
                       0.000000  0.000000  0.000000  0.000000  0.000000  0.000000
                       0.000000  0.000000  0.000000  0.000000  0.000000  0.000000
                       0.000000  0.000000  0.000000  0.000000  0.000000  0.000000
                       0.000000  0.000000  0.000000  0.000000  0.000000  0.000000
                       0.000000  0.000000  0.000000  0.000000  0.000000  0.000000
                       0.000000  0.000000  0.000000  0.000000  0.000000  0.000000
                       0.000000  0.000000  0.000000  0.000000  0.000000  0.000000
                       0.000000  0.000000  0.000000  0.000000  0.000000  0.000000
                       0.000000  0.000000  0.000000  0.000000  0.000000  0.000000
                       0.000000  0.000000  0.000000  0.000000  0.000000  0.000000
                       0.000000  0.000000  0.000000  0.000000  0.000000  0.000000
                       0.000000  0.000000  0.000000  0.000000  0.000000  0.000000
                       0.000000  0.000000  0.000000  0.000000  0.000000  0.000000
                       0.000000  0.000000  0.000000  0.000000  0.000000  0.000000
        optdriver3          3
        optdriver4          4
           ppmfrq3     6.13713734E-01 Hartree
           ppmfrq4     0.00000000E+00 Hartree
          spgroup          57
           strten3     0.0000000000E+00  0.0000000000E+00  0.0000000000E+00
                       0.0000000000E+00  0.0000000000E+00  0.0000000000E+00
           strten4     0.0000000000E+00  0.0000000000E+00  0.0000000000E+00
                       0.0000000000E+00  0.0000000000E+00  0.0000000000E+00
           symrel      1  0  0   0  1  0   0  0  1      -1  0  0   0 -1  0   0  0 -1
                      -1  0  0   0  1  0   0  0 -1       1  0  0   0 -1  0   0  0  1
                      -1  0  0   0 -1  0   0  0  1       1  0  0   0  1  0   0  0 -1
                       1  0  0   0 -1  0   0  0 -1      -1  0  0   0  1  0   0  0  1
            tnons      0.0000000  0.0000000  0.0000000    -0.0000000  0.0000000  0.0000000
                       0.5000000  0.5000000  0.0000000     0.5000000  0.5000000  0.0000000
                      -0.0000000  0.5000000  0.0000000     0.0000000  0.5000000  0.0000000
                       0.5000000  0.0000000  0.0000000     0.5000000  0.0000000  0.0000000
           toldfe      1.00000000E-08 Hartree
           tolsym      1.00000000E-04
            typat      1  1  1  1  1  1  1  1  1  1  1  1  1  1  1  1  1  1  1  1
                       1  1  1  1  1  1  1  1  1  1  1  1  2  2  2  2  2  2  2  2
          usekden           1
          vcutgeo      1.0000000  1.0000000  0.0000000
              wtk        0.02778    0.05556    0.05556    0.02778    0.05556    0.11111
                         0.11111    0.05556    0.05556    0.11111    0.11111    0.05556
                         0.02778    0.05556    0.05556    0.02778
           xangst      4.0200657419E+00  1.8285246137E+00  1.8189619946E+01
                       2.9250780542E-01  2.6687060456E+00  2.6810380054E+01
                       1.8637789682E+00  2.6687060456E+00  2.6810380054E+01
                       2.4487945791E+00  1.8285246137E+00  1.8189619946E+01
                       2.4487945791E+00  4.0771399433E+00  2.6810380054E+01
                       1.8637789682E+00  4.2009071597E-01  1.8189619946E+01
                       2.9250780542E-01  4.2009071597E-01  1.8189619946E+01
                       4.0200657419E+00  4.0771399433E+00  2.6810380054E+01
                       4.0448461619E+00  1.8749453844E+00  2.0620134630E+01
                       2.6772738547E-01  2.6222852749E+00  2.4379865370E+01
                       1.8885593882E+00  2.6222852749E+00  2.4379865370E+01
                       2.4240141592E+00  1.8749453844E+00  2.0620134630E+01
                       2.4240141592E+00  4.1235607140E+00  2.4379865370E+01
                       1.8885593882E+00  3.7366994524E-01  2.0620134630E+01
                       2.6772738547E-01  3.7366994524E-01  2.0620134630E+01
                       4.0448461619E+00  4.1235607140E+00  2.4379865370E+01
                       4.0437486753E+00  1.8735582678E+00  2.3126592582E+01
                       2.6882487204E-01  2.6236723915E+00  2.1873407418E+01
                       1.8874619016E+00  2.6236723915E+00  2.1873407418E+01
                       2.4251116458E+00  1.8735582678E+00  2.3126592582E+01
                       2.4251116458E+00  4.1221735974E+00  2.1873407418E+01
                       1.8874619016E+00  3.7505706185E-01  2.3126592582E+01
                       2.6882487204E-01  3.7505706185E-01  2.3126592582E+01
                       4.0437486753E+00  4.1221735974E+00  2.1873407418E+01
                       4.0359236766E+00  1.8573310566E+00  2.5635894280E+01
                       2.7664987080E-01  2.6398996027E+00  1.9364105720E+01
                       1.8796369028E+00  2.6398996027E+00  1.9364105720E+01
                       2.4329366445E+00  1.8573310566E+00  2.5635894280E+01
                       2.4329366445E+00  4.1059463862E+00  1.9364105720E+01
                       1.8796369028E+00  3.9128427303E-01  2.5635894280E+01
                       2.7664987080E-01  3.9128427303E-01  2.5635894280E+01
                       4.0359236766E+00  4.1059463862E+00  1.9364105720E+01
                       4.3134588900E+00  2.2175679753E+00  2.8048380942E+01
                      -8.8534263253E-04  2.2796626839E+00  1.6951619058E+01
                       2.1571721163E+00  2.2796626839E+00  1.6951619058E+01
                       2.1554014311E+00  2.2175679753E+00  2.8048380942E+01
                       2.1554014311E+00  4.4661833050E+00  1.6951619058E+01
                       2.1571721163E+00  3.1047354296E-02  2.8048380942E+01
                      -8.8534263253E-04  3.1047354296E-02  2.8048380942E+01
                       4.3134588900E+00  4.4661833050E+00  1.6951619058E+01
            xcart      7.5968232885E+00  3.4554107471E+00  3.4373400159E+01
                       5.5275964397E-01  5.0431235554E+00  5.0664275821E+01
                       3.5220318222E+00  5.0431235554E+00  5.0664275821E+01
                       4.6275511103E+00  3.4554107471E+00  3.4373400159E+01
                       4.6275511103E+00  7.7046778983E+00  5.0664275821E+01
                       3.5220318222E+00  7.9385640416E-01  3.4373400159E+01
                       5.5275964397E-01  7.9385640416E-01  3.4373400159E+01
                       7.5968232885E+00  7.7046778983E+00  5.0664275821E+01
                       7.6436514956E+00  3.5431332906E+00  3.8966407274E+01
                       5.0593143681E-01  4.9554010118E+00  4.6071268706E+01
                       3.5688600293E+00  4.9554010118E+00  4.6071268706E+01
                       4.5807229031E+00  3.5431332906E+00  3.8966407274E+01
                       4.5807229031E+00  7.7924004418E+00  4.6071268706E+01
                       3.5688600293E+00  7.0613386060E-01  3.8966407274E+01
                       5.0593143681E-01  7.0613386060E-01  3.8966407274E+01
                       7.6436514956E+00  7.7924004418E+00  4.6071268706E+01
                       7.6415775466E+00  3.5405120201E+00  4.3702926368E+01
                       5.0800538587E-01  4.9580222823E+00  4.1334749612E+01
                       3.5667860803E+00  4.9580222823E+00  4.1334749612E+01
                       4.5827968522E+00  3.5405120201E+00  4.3702926368E+01
                       4.5827968522E+00  7.7897791713E+00  4.1334749612E+01
                       3.5667860803E+00  7.0875513110E-01  4.3702926368E+01
                       5.0800538587E-01  7.0875513110E-01  4.3702926368E+01
                       7.6415775466E+00  7.7897791713E+00  4.1334749612E+01
                       7.6267904419E+00  3.5098470351E+00  4.8444819360E+01
                       5.2279249051E-01  4.9886872673E+00  3.6592856620E+01
                       3.5519989756E+00  4.9886872673E+00  3.6592856620E+01
                       4.5975839568E+00  3.5098470351E+00  4.8444819360E+01
                       4.5975839568E+00  7.7591141863E+00  3.6592856620E+01
                       3.5519989756E+00  7.3942011613E-01  4.8444819360E+01
                       5.2279249051E-01  7.3942011613E-01  4.8444819360E+01
                       7.6267904419E+00  7.7591141863E+00  3.6592856620E+01
                       8.1512559875E+00  4.1905961544E+00  5.3003758451E+01
                      -1.6730551093E-03  4.3079381480E+00  3.2033917529E+01
                       4.0764645212E+00  4.3079381480E+00  3.2033917529E+01
                       4.0731184112E+00  4.1905961544E+00  5.3003758451E+01
                       4.0731184112E+00  8.4398633056E+00  3.2033917529E+01
                       4.0764645212E+00  5.8670996771E-02  5.3003758451E+01
                      -1.6730551093E-03  5.8670996771E-02  5.3003758451E+01
                       8.1512559875E+00  8.4398633056E+00  3.2033917529E+01
             xred      9.3217325982E-01  4.0658902160E-01  4.0421377658E-01
                       6.7826740159E-02  5.9341097840E-01  5.9578622342E-01
                       4.3217325982E-01  5.9341097840E-01  5.9578622342E-01
                       5.6782674016E-01  4.0658902160E-01  4.0421377658E-01
                       5.6782674016E-01  9.0658902160E-01  5.9578622342E-01
                       4.3217325982E-01  9.3410978400E-02  4.0421377658E-01
                       6.7826740159E-02  9.3410978400E-02  4.0421377658E-01
                       9.3217325982E-01  9.0658902160E-01  5.9578622342E-01
                       9.3791934616E-01  4.1691110073E-01  4.5822521400E-01
                       6.2080653819E-02  5.8308889927E-01  5.4177478600E-01
                       4.3791934616E-01  5.8308889927E-01  5.4177478600E-01
                       5.6208065382E-01  4.1691110073E-01  4.5822521400E-01
                       5.6208065382E-01  9.1691110073E-01  5.4177478600E-01
                       4.3791934616E-01  8.3088899271E-02  4.5822521400E-01
                       6.2080653819E-02  8.3088899271E-02  4.5822521400E-01
                       9.3791934616E-01  9.1691110073E-01  5.4177478600E-01
                       9.3766486086E-01  4.1660266278E-01  5.1392427961E-01
                       6.2335139119E-02  5.8339733722E-01  4.8607572039E-01
                       4.3766486086E-01  5.8339733722E-01  4.8607572039E-01
                       5.6233513912E-01  4.1660266278E-01  5.1392427961E-01
                       5.6233513912E-01  9.1660266278E-01  4.8607572039E-01
                       4.3766486086E-01  8.3397337221E-02  5.1392427961E-01
                       6.2335139119E-02  8.3397337221E-02  5.1392427961E-01
                       9.3766486086E-01  9.1660266278E-01  4.8607572039E-01
                       9.3585039934E-01  4.1299439529E-01  5.6968653955E-01
                       6.4149600640E-02  5.8700560471E-01  4.3031346045E-01
                       4.3585039934E-01  5.8700560471E-01  4.3031346045E-01
                       5.6414960064E-01  4.1299439529E-01  5.6968653955E-01
                       5.6414960064E-01  9.1299439529E-01  4.3031346045E-01
                       4.3585039934E-01  8.7005604710E-02  5.6968653955E-01
                       6.4149600640E-02  8.7005604710E-02  5.6968653955E-01
                       9.3585039934E-01  9.1299439529E-01  4.3031346045E-01
                       1.0002052933E+00  4.9309633936E-01  6.2329735426E-01
                      -2.0529334115E-04  5.0690366064E-01  3.7670264574E-01
                       5.0020529332E-01  5.0690366064E-01  3.7670264574E-01
                       4.9979470666E-01  4.9309633936E-01  6.2329735426E-01
                       4.9979470666E-01  9.9309633936E-01  3.7670264574E-01
                       5.0020529332E-01  6.9036606412E-03  6.2329735426E-01
                      -2.0529334115E-04  6.9036606412E-03  6.2329735426E-01
                       1.0002052933E+00  9.9309633936E-01  3.7670264574E-01
            znucl        6.00000    9.00000

================================================================================


- Timing analysis has been suppressed with timopt=0



================================================================================

 Suggested references for the acknowledgment of ABINIT usage.

 The users of ABINIT have little formal obligations with respect to the ABINIT group
 (those specified in the GNU General Public License, http://www.gnu.org/copyleft/gpl.txt).
 However, it is common practice in the scientific literature,
 to acknowledge the efforts of people that have made the research possible.
 In this spirit, please find below suggested citations of work written by ABINIT developers,
 corresponding to implementations inside of ABINIT that you have used in the present run.
 Note also that it will be of great value to readers of publications presenting these results,
 to read papers enabling them to understand the theoretical formalism and details
 of the ABINIT implementation.
 For information on why they are suggested, see also https://docs.abinit.org/theory/acknowledgments.
-
- [1] Libxc: A library of exchange and correlation functionals for density functional theory.
- M.A.L. Marques, M.J.T. Oliveira, T. Burnus, Computer Physics Communications 183, 2227 (2012).
- Comment: to be cited when LibXC is used (negative value of ixc)
- Strong suggestion to cite this paper.
- DOI and bibtex: see https://docs.abinit.org/theory/bibliography/#marques2012
-
- [2] The Abinit project: Impact, environment and recent developments.
- Computer Phys. Comm. 248, 107042 (2020).
- X.Gonze, B. Amadon, G. Antonius, F.Arnardi, L.Baguet, J.-M.Beuken,
- J.Bieder, F.Bottin, J.Bouchet, E.Bousquet, N.Brouwer, F.Bruneval,
- G.Brunin, T.Cavignac, J.-B. Charraud, Wei Chen, M.Cote, S.Cottenier,
- J.Denier, G.Geneste, Ph.Ghosez, M.Giantomassi, Y.Gillet, O.Gingras,
- D.R.Hamann, G.Hautier, Xu He, N.Helbig, N.Holzwarth, Y.Jia, F.Jollet,
- W.Lafargue-Dit-Hauret, K.Lejaeghere, M.A.L.Marques, A.Martin, C.Martins,
- H.P.C. Miranda, F.Naccarato, K. Persson, G.Petretto, V.Planes, Y.Pouillon,
- S.Prokhorenko, F.Ricci, G.-M.Rignanese, A.H.Romero, M.M.Schmitt, M.Torrent,
- M.J.van Setten, B.Van Troeye, M.J.Verstraete, G.Zerah and J.W.Zwanzig
- Comment: the fifth generic paper describing the ABINIT project.
- Note that a version of this paper, that is not formatted for Computer Phys. Comm. 
- is available at https://www.abinit.org/sites/default/files/ABINIT20.pdf .
- The licence allows the authors to put it on the Web.
- DOI and bibtex: see https://docs.abinit.org/theory/bibliography/#gonze2020
-
- [3] ABINIT: Overview, and focus on selected capabilities
- J. Chem. Phys. 152, 124102 (2020).
- A. Romero, D.C. Allan, B. Amadon, G. Antonius, T. Applencourt, L.Baguet,
- J.Bieder, F.Bottin, J.Bouchet, E.Bousquet, F.Bruneval,
- G.Brunin, D.Caliste, M.Cote,
- J.Denier, C. Dreyer, Ph.Ghosez, M.Giantomassi, Y.Gillet, O.Gingras,
- D.R.Hamann, G.Hautier, F.Jollet, G. Jomard,
- A.Martin, 
- H.P.C. Miranda, F.Naccarato, G.Petretto, N.A. Pike, V.Planes,
- S.Prokhorenko, T. Rangel, F.Ricci, G.-M.Rignanese, M.Royo, M.Stengel, M.Torrent,
- M.J.van Setten, B.Van Troeye, M.J.Verstraete, J.Wiktor, J.W.Zwanziger, and X.Gonze.
- Comment: a global overview of ABINIT, with focus on selected capabilities .
- Note that a version of this paper, that is not formatted for J. Chem. Phys 
- is available at https://www.abinit.org/sites/default/files/ABINIT20_JPC.pdf .
- The licence allows the authors to put it on the Web.
- DOI and bibtex: see https://docs.abinit.org/theory/bibliography/#romero2020
-
- [4] Recent developments in the ABINIT software package.
- Computer Phys. Comm. 205, 106 (2016).
- X.Gonze, F.Jollet, F.Abreu Araujo, D.Adams, B.Amadon, T.Applencourt,
- C.Audouze, J.-M.Beuken, J.Bieder, A.Bokhanchuk, E.Bousquet, F.Bruneval
- D.Caliste, M.Cote, F.Dahm, F.Da Pieve, M.Delaveau, M.Di Gennaro,
- B.Dorado, C.Espejo, G.Geneste, L.Genovese, A.Gerossier, M.Giantomassi,
- Y.Gillet, D.R.Hamann, L.He, G.Jomard, J.Laflamme Janssen, S.Le Roux,
- A.Levitt, A.Lherbier, F.Liu, I.Lukacevic, A.Martin, C.Martins,
- M.J.T.Oliveira, S.Ponce, Y.Pouillon, T.Rangel, G.-M.Rignanese,
- A.H.Romero, B.Rousseau, O.Rubel, A.A.Shukri, M.Stankovski, M.Torrent,
- M.J.Van Setten, B.Van Troeye, M.J.Verstraete, D.Waroquier, J.Wiktor,
- B.Xu, A.Zhou, J.W.Zwanziger.
- Comment: the fourth generic paper describing the ABINIT project.
- Note that a version of this paper, that is not formatted for Computer Phys. Comm. 
- is available at https://www.abinit.org/sites/default/files/ABINIT16.pdf .
- The licence allows the authors to put it on the Web.
- DOI and bibtex: see https://docs.abinit.org/theory/bibliography/#gonze2016
-
- And optionally:
-
- [5] ABINIT: First-principles approach of materials and nanosystem properties.
- Computer Phys. Comm. 180, 2582-2615 (2009).
- X. Gonze, B. Amadon, P.-M. Anglade, J.-M. Beuken, F. Bottin, P. Boulanger, F. Bruneval,
- D. Caliste, R. Caracas, M. Cote, T. Deutsch, L. Genovese, Ph. Ghosez, M. Giantomassi
- S. Goedecker, D.R. Hamann, P. Hermet, F. Jollet, G. Jomard, S. Leroux, M. Mancini, S. Mazevet,
- M.J.T. Oliveira, G. Onida, Y. Pouillon, T. Rangel, G.-M. Rignanese, D. Sangalli, R. Shaltaf,
- M. Torrent, M.J. Verstraete, G. Zerah, J.W. Zwanziger
- Comment: the third generic paper describing the ABINIT project.
- Note that a version of this paper, that is not formatted for Computer Phys. Comm. 
- is available at https://www.abinit.org/sites/default/files/ABINIT_CPC_v10.pdf .
- The licence allows the authors to put it on the Web.
- DOI and bibtex: see https://docs.abinit.org/theory/bibliography/#gonze2009
-
- Proc.   0 individual time (sec): cpu=      68462.4  wall=      68572.2

================================================================================

 Calculation completed.
.Delivered   0 WARNINGs and   2 COMMENTs to log file.
+Overall time at end (sec) : cpu=    4387138.3  wall=    4388618.3
