
.Version 9.7.2 of ABINIT 
.(MPI version, prepared for a x86_64_linux_gnu10.3 computer) 

.Copyright (C) 1998-2021 ABINIT group . 
 ABINIT comes with ABSOLUTELY NO WARRANTY.
 It is free software, and you are welcome to redistribute it
 under certain conditions (GNU General Public License,
 see ~abinit/COPYING or http://www.gnu.org/copyleft/gpl.txt).

 ABINIT is a project of the Universite Catholique de Louvain,
 Corning Inc. and other collaborators, see ~abinit/doc/developers/contributors.txt .
 Please read https://docs.abinit.org/theory/acknowledgments for suggested
 acknowledgments of the ABINIT effort.
 For more information, see https://www.abinit.org .

.Starting date : Tue 22 Mar 2022.
- ( at 02h46 )
  
- input  file    -> ./4F-2110_gw.abi
- output file    -> 4F-2110_gw.abo
- root for input  files -> 4F-2110_gw_i
- root for output files -> 4F-2110_gw_o


 DATASET    2 : space group Pb c m (# 57); Bravais oP (primitive ortho.)
================================================================================
 Values of the parameters that define the memory need for DATASET  2.
     intxc =       0    ionmov =       0      iscf =      -2    lmnmax =       1
     lnmax =       1     mgfft =     576  mpssoang =       2    mqgrid =   27069
     natom =      40  nloc_mem =       1    nspden =       1   nspinor =       1
    nsppol =       1      nsym =       8    n1xccc =       0    ntypat =       2
    occopt =       1   xclevel =       2
-    mband =        2184        mffmem =           1         mkmem =          16
       mpw =       99620          nfft =     1866240          nkpt =          16
================================================================================
P This job should need less than                   53700.405 Mbytes of memory.
  Rough estimation (10% accuracy) of disk space for files :
_ WF disk file :  53117.697 Mbytes ; DEN or POT disk file :     14.240 Mbytes.
================================================================================

--------------------------------------------------------------------------------
------------- Echo of variables that govern the present computation ------------
--------------------------------------------------------------------------------
-
- outvars: echo of selected default values                                      
-   iomode0 =  0 , fftalg0 =312 , wfoptalg0 =  0
-
- outvars: echo of global parameters not present in the input file              
-  max_nthreads =    0
-
 -outvars: echo values of preprocessed input variables --------
-          iomode           1
            acell      8.1495829326E+00  8.4985343024E+00  8.5037675980E+01 Bohr
              amu      1.20110000E+01  1.89984032E+01
          chkprim           0
     densfor_pred           6
           diemac      1.20000000E+01
             ecut      5.00000000E+01 Hartree
-          fftalg         312
           getden           1
      gw_icutcoul           2
             iscf          -2
           istwfk        1    0    0    1    0    0    0    0    0    0
                         0    0    1    0    0    1
              ixc     -208012
           jdtset        2
              kpt      0.00000000E+00  0.00000000E+00  0.00000000E+00
                       1.66666667E-01  0.00000000E+00  0.00000000E+00
                       3.33333333E-01  0.00000000E+00  0.00000000E+00
                       5.00000000E-01  0.00000000E+00  0.00000000E+00
                       0.00000000E+00  1.66666667E-01  0.00000000E+00
                       1.66666667E-01  1.66666667E-01  0.00000000E+00
                       3.33333333E-01  1.66666667E-01  0.00000000E+00
                       5.00000000E-01  1.66666667E-01  0.00000000E+00
                       0.00000000E+00  3.33333333E-01  0.00000000E+00
                       1.66666667E-01  3.33333333E-01  0.00000000E+00
                       3.33333333E-01  3.33333333E-01  0.00000000E+00
                       5.00000000E-01  3.33333333E-01  0.00000000E+00
                       0.00000000E+00  5.00000000E-01  0.00000000E+00
                       1.66666667E-01  5.00000000E-01  0.00000000E+00
                       3.33333333E-01  5.00000000E-01  0.00000000E+00
                       5.00000000E-01  5.00000000E-01  0.00000000E+00
         kptrlatt        6    0    0      0    6    0      0    0    1
          kptrlen      4.88974976E+01
P           mkmem          16
            natom          40
            nband        2184
           nbdbuf         273
           ndtset           1
            ngfft          54      60     576
             nkpt          16
            nstep         100
             nsym           8
           ntypat           2
           ortalg          -2
        paral_kgb           1
          prtkden           1
          spgroup          57
           symrel      1  0  0   0  1  0   0  0  1      -1  0  0   0 -1  0   0  0 -1
                      -1  0  0   0  1  0   0  0 -1       1  0  0   0 -1  0   0  0  1
                      -1  0  0   0 -1  0   0  0  1       1  0  0   0  1  0   0  0 -1
                       1  0  0   0 -1  0   0  0 -1      -1  0  0   0  1  0   0  0  1
            tnons      0.0000000  0.0000000  0.0000000    -0.0000000  0.0000000  0.0000000
                       0.5000000  0.5000000  0.0000000     0.5000000  0.5000000  0.0000000
                      -0.0000000  0.5000000  0.0000000     0.0000000  0.5000000  0.0000000
                       0.5000000  0.0000000  0.0000000     0.5000000  0.0000000  0.0000000
           tolsym      1.00000000E-04
           tolwfr      1.00000000E-18
            typat      1  1  1  1  1  1  1  1  1  1  1  1  1  1  1  1  1  1  1  1
                       1  1  1  1  1  1  1  1  1  1  1  1  2  2  2  2  2  2  2  2
          usekden           1
          vcutgeo      1.0000000  1.0000000  0.0000000
         wfoptalg         114
              wtk        0.02778    0.05556    0.05556    0.02778    0.05556    0.11111
                         0.11111    0.05556    0.05556    0.11111    0.11111    0.05556
                         0.02778    0.05556    0.05556    0.02778
           xangst      4.0200657419E+00  1.8285246137E+00  1.8189619946E+01
                       2.9250780542E-01  2.6687060456E+00  2.6810380054E+01
                       1.8637789682E+00  2.6687060456E+00  2.6810380054E+01
                       2.4487945791E+00  1.8285246137E+00  1.8189619946E+01
                       2.4487945791E+00  4.0771399433E+00  2.6810380054E+01
                       1.8637789682E+00  4.2009071597E-01  1.8189619946E+01
                       2.9250780542E-01  4.2009071597E-01  1.8189619946E+01
                       4.0200657419E+00  4.0771399433E+00  2.6810380054E+01
                       4.0448461619E+00  1.8749453844E+00  2.0620134630E+01
                       2.6772738547E-01  2.6222852749E+00  2.4379865370E+01
                       1.8885593882E+00  2.6222852749E+00  2.4379865370E+01
                       2.4240141592E+00  1.8749453844E+00  2.0620134630E+01
                       2.4240141592E+00  4.1235607140E+00  2.4379865370E+01
                       1.8885593882E+00  3.7366994524E-01  2.0620134630E+01
                       2.6772738547E-01  3.7366994524E-01  2.0620134630E+01
                       4.0448461619E+00  4.1235607140E+00  2.4379865370E+01
                       4.0437486753E+00  1.8735582678E+00  2.3126592582E+01
                       2.6882487204E-01  2.6236723915E+00  2.1873407418E+01
                       1.8874619016E+00  2.6236723915E+00  2.1873407418E+01
                       2.4251116458E+00  1.8735582678E+00  2.3126592582E+01
                       2.4251116458E+00  4.1221735974E+00  2.1873407418E+01
                       1.8874619016E+00  3.7505706185E-01  2.3126592582E+01
                       2.6882487204E-01  3.7505706185E-01  2.3126592582E+01
                       4.0437486753E+00  4.1221735974E+00  2.1873407418E+01
                       4.0359236766E+00  1.8573310566E+00  2.5635894280E+01
                       2.7664987080E-01  2.6398996027E+00  1.9364105720E+01
                       1.8796369028E+00  2.6398996027E+00  1.9364105720E+01
                       2.4329366445E+00  1.8573310566E+00  2.5635894280E+01
                       2.4329366445E+00  4.1059463862E+00  1.9364105720E+01
                       1.8796369028E+00  3.9128427303E-01  2.5635894280E+01
                       2.7664987080E-01  3.9128427303E-01  2.5635894280E+01
                       4.0359236766E+00  4.1059463862E+00  1.9364105720E+01
                       4.3134588900E+00  2.2175679753E+00  2.8048380942E+01
                      -8.8534263253E-04  2.2796626839E+00  1.6951619058E+01
                       2.1571721163E+00  2.2796626839E+00  1.6951619058E+01
                       2.1554014311E+00  2.2175679753E+00  2.8048380942E+01
                       2.1554014311E+00  4.4661833050E+00  1.6951619058E+01
                       2.1571721163E+00  3.1047354296E-02  2.8048380942E+01
                      -8.8534263253E-04  3.1047354296E-02  2.8048380942E+01
                       4.3134588900E+00  4.4661833050E+00  1.6951619058E+01
            xcart      7.5968232885E+00  3.4554107471E+00  3.4373400159E+01
                       5.5275964397E-01  5.0431235554E+00  5.0664275821E+01
                       3.5220318222E+00  5.0431235554E+00  5.0664275821E+01
                       4.6275511103E+00  3.4554107471E+00  3.4373400159E+01
                       4.6275511103E+00  7.7046778983E+00  5.0664275821E+01
                       3.5220318222E+00  7.9385640416E-01  3.4373400159E+01
                       5.5275964397E-01  7.9385640416E-01  3.4373400159E+01
                       7.5968232885E+00  7.7046778983E+00  5.0664275821E+01
                       7.6436514956E+00  3.5431332906E+00  3.8966407274E+01
                       5.0593143681E-01  4.9554010118E+00  4.6071268706E+01
                       3.5688600293E+00  4.9554010118E+00  4.6071268706E+01
                       4.5807229031E+00  3.5431332906E+00  3.8966407274E+01
                       4.5807229031E+00  7.7924004418E+00  4.6071268706E+01
                       3.5688600293E+00  7.0613386060E-01  3.8966407274E+01
                       5.0593143681E-01  7.0613386060E-01  3.8966407274E+01
                       7.6436514956E+00  7.7924004418E+00  4.6071268706E+01
                       7.6415775466E+00  3.5405120201E+00  4.3702926368E+01
                       5.0800538587E-01  4.9580222823E+00  4.1334749612E+01
                       3.5667860803E+00  4.9580222823E+00  4.1334749612E+01
                       4.5827968522E+00  3.5405120201E+00  4.3702926368E+01
                       4.5827968522E+00  7.7897791713E+00  4.1334749612E+01
                       3.5667860803E+00  7.0875513110E-01  4.3702926368E+01
                       5.0800538587E-01  7.0875513110E-01  4.3702926368E+01
                       7.6415775466E+00  7.7897791713E+00  4.1334749612E+01
                       7.6267904419E+00  3.5098470351E+00  4.8444819360E+01
                       5.2279249051E-01  4.9886872673E+00  3.6592856620E+01
                       3.5519989756E+00  4.9886872673E+00  3.6592856620E+01
                       4.5975839568E+00  3.5098470351E+00  4.8444819360E+01
                       4.5975839568E+00  7.7591141863E+00  3.6592856620E+01
                       3.5519989756E+00  7.3942011613E-01  4.8444819360E+01
                       5.2279249051E-01  7.3942011613E-01  4.8444819360E+01
                       7.6267904419E+00  7.7591141863E+00  3.6592856620E+01
                       8.1512559875E+00  4.1905961544E+00  5.3003758451E+01
                      -1.6730551093E-03  4.3079381480E+00  3.2033917529E+01
                       4.0764645212E+00  4.3079381480E+00  3.2033917529E+01
                       4.0731184112E+00  4.1905961544E+00  5.3003758451E+01
                       4.0731184112E+00  8.4398633056E+00  3.2033917529E+01
                       4.0764645212E+00  5.8670996771E-02  5.3003758451E+01
                      -1.6730551093E-03  5.8670996771E-02  5.3003758451E+01
                       8.1512559875E+00  8.4398633056E+00  3.2033917529E+01
             xred      9.3217325982E-01  4.0658902160E-01  4.0421377658E-01
                       6.7826740159E-02  5.9341097840E-01  5.9578622342E-01
                       4.3217325982E-01  5.9341097840E-01  5.9578622342E-01
                       5.6782674016E-01  4.0658902160E-01  4.0421377658E-01
                       5.6782674016E-01  9.0658902160E-01  5.9578622342E-01
                       4.3217325982E-01  9.3410978400E-02  4.0421377658E-01
                       6.7826740159E-02  9.3410978400E-02  4.0421377658E-01
                       9.3217325982E-01  9.0658902160E-01  5.9578622342E-01
                       9.3791934616E-01  4.1691110073E-01  4.5822521400E-01
                       6.2080653819E-02  5.8308889927E-01  5.4177478600E-01
                       4.3791934616E-01  5.8308889927E-01  5.4177478600E-01
                       5.6208065382E-01  4.1691110073E-01  4.5822521400E-01
                       5.6208065382E-01  9.1691110073E-01  5.4177478600E-01
                       4.3791934616E-01  8.3088899271E-02  4.5822521400E-01
                       6.2080653819E-02  8.3088899271E-02  4.5822521400E-01
                       9.3791934616E-01  9.1691110073E-01  5.4177478600E-01
                       9.3766486086E-01  4.1660266278E-01  5.1392427961E-01
                       6.2335139119E-02  5.8339733722E-01  4.8607572039E-01
                       4.3766486086E-01  5.8339733722E-01  4.8607572039E-01
                       5.6233513912E-01  4.1660266278E-01  5.1392427961E-01
                       5.6233513912E-01  9.1660266278E-01  4.8607572039E-01
                       4.3766486086E-01  8.3397337221E-02  5.1392427961E-01
                       6.2335139119E-02  8.3397337221E-02  5.1392427961E-01
                       9.3766486086E-01  9.1660266278E-01  4.8607572039E-01
                       9.3585039934E-01  4.1299439529E-01  5.6968653955E-01
                       6.4149600640E-02  5.8700560471E-01  4.3031346045E-01
                       4.3585039934E-01  5.8700560471E-01  4.3031346045E-01
                       5.6414960064E-01  4.1299439529E-01  5.6968653955E-01
                       5.6414960064E-01  9.1299439529E-01  4.3031346045E-01
                       4.3585039934E-01  8.7005604710E-02  5.6968653955E-01
                       6.4149600640E-02  8.7005604710E-02  5.6968653955E-01
                       9.3585039934E-01  9.1299439529E-01  4.3031346045E-01
                       1.0002052933E+00  4.9309633936E-01  6.2329735426E-01
                      -2.0529334115E-04  5.0690366064E-01  3.7670264574E-01
                       5.0020529332E-01  5.0690366064E-01  3.7670264574E-01
                       4.9979470666E-01  4.9309633936E-01  6.2329735426E-01
                       4.9979470666E-01  9.9309633936E-01  3.7670264574E-01
                       5.0020529332E-01  6.9036606412E-03  6.2329735426E-01
                      -2.0529334115E-04  6.9036606412E-03  6.2329735426E-01
                       1.0002052933E+00  9.9309633936E-01  3.7670264574E-01
            znucl        6.00000    9.00000

================================================================================

 chkinp: Checking input parameters for consistency, jdtset=   2.

 abinit : before driver, prtvol=0, debugging mode => will skip driver

== END DATASET(S) ==============================================================
================================================================================

 abinit : before driver, prtvol=0, debugging mode => will skip outvars


- Timing analysis has been suppressed with timopt=0



 abinit : before driver, prtvol=0, debugging mode => will skip acknowledgments
-
- Proc.   0 individual time (sec): cpu=          0.2  wall=          0.2

================================================================================

 Calculation completed.
.Delivered   0 WARNINGs and   3 COMMENTs to log file.
+Overall time at end (sec) : cpu=          0.2  wall=          0.2
