  ABINIT 9.7.2
  
 DeprecationWarning: 

     The files file has been deprecated in Abinit9 and will be removed in Abinit10.
     Use the syntax `abinit t01.abi` where t01.abi is an input with pseudopotentials e.g.

            pseudos = "al.psp8, as.psp8"


  Give name for formatted input file: 
./4F-2110_gw.abi
  Give name for formatted output file:
4F-2110_gw.abo
  Give root name for generic input files:
4F-2110_gw_i
  Give root name for generic output files:
4F-2110_gw_o
  Give root name for generic temporary files:
4F-2110_gw

--- !COMMENT
src_file: m_dtfil.F90
src_line: 1476
message: |
    Output file: 4F-2110_gw.abo already exists.
...


--- !COMMENT
src_file: m_dtfil.F90
src_line: 1500
message: |
    Renaming old: 4F-2110_gw.abo to: 4F-2110_gw.abo0014
...


.Version 9.7.2 of ABINIT 
.(MPI version, prepared for a x86_64_linux_gnu10.3 computer) 

.Copyright (C) 1998-2021 ABINIT group . 
 ABINIT comes with ABSOLUTELY NO WARRANTY.
 It is free software, and you are welcome to redistribute it
 under certain conditions (GNU General Public License,
 see ~abinit/COPYING or http://www.gnu.org/copyleft/gpl.txt).

 ABINIT is a project of the Universite Catholique de Louvain,
 Corning Inc. and other collaborators, see ~abinit/doc/developers/contributors.txt .
 Please read https://docs.abinit.org/theory/acknowledgments for suggested
 acknowledgments of the ABINIT effort.
 For more information, see https://www.abinit.org .

.Starting date : Tue 22 Mar 2022.
- ( at 22h46 )
  

 ++++++++++++++++++++++++++++++++++++++++++++++++++++++++++++++++++++++++++++++

 === Build Information === 
  Version       : 9.7.2
  Build target  : x86_64_linux_gnu10.3
  Build date    : 20220304

 === Compiler Suite === 
  C compiler       : gnu10.3
  C++ compiler     : gnu10.3
  Fortran compiler : gnu10.3
  CFLAGS           : -g -O2 -mtune=native -march=native
  CXXFLAGS         : -g -O2 -mtune=native -march=native
  FCFLAGS          : -g -ffree-line-length-none -fallow-argument-mismatch     -I/opt/cra ...
  FC_LDFLAGS       : 

 === Optimizations === 
  Debug level        : basic
  Optimization level : standard
  Architecture       : amd_epyc

 === Multicore === 
  Parallel build : /opt/cray/pe/mpich/8.1.8/ofi/gnu/9.1
  Parallel I/O   : 
  openMP support : no
  GPU support    : 

 === Connectors / Fallbacks === 
  LINALG flavor  : netlib
  FFT flavor     : fftw3
  HDF5           : yes
  NetCDF         : yes
  NetCDF Fortran : yes
  LibXC          : yes
  Wannier90      : no

 === Experimental features === 
  Exports             : 
  GW double-precision : 

 ++++++++++++++++++++++++++++++++++++++++++++++++++++++++++++++++++++++++++++++


 ++++++++++++++++++++++++++++++++++++++++++++++++++++++++++++++++++++++++++++++
 Default optimizations:
   -O2 -mtune=native -march=native


 Optimizations for 43_ptgroups:
   -O0


 ++++++++++++++++++++++++++++++++++++++++++++++++++++++++++++++++++++++++++++++


 ++++++++++++++++++++++++++++++++++++++++++++++++++++++++++++++++++++++++++++++
 CPP options activated during the build:

                    CC_GNU                   CXX_GNU                    FC_GNU
 
 HAVE_FC_ALLOCATABLE_DT...             HAVE_FC_ASYNC         HAVE_FC_BACKTRACE
 
  HAVE_FC_COMMAND_ARGUMENT      HAVE_FC_COMMAND_LINE        HAVE_FC_CONTIGUOUS
 
           HAVE_FC_CPUTIME              HAVE_FC_EXIT             HAVE_FC_FLUSH
 
             HAVE_FC_GAMMA            HAVE_FC_GETENV   HAVE_FC_IEEE_ARITHMETIC
 
   HAVE_FC_IEEE_EXCEPTIONS          HAVE_FC_INT_QUAD             HAVE_FC_IOMSG
 
     HAVE_FC_ISO_C_BINDING  HAVE_FC_ISO_FORTRAN_2008        HAVE_FC_LONG_LINES
 
        HAVE_FC_MOVE_ALLOC  HAVE_FC_ON_THE_FLY_SHAPE           HAVE_FC_PRIVATE
 
         HAVE_FC_PROTECTED           HAVE_FC_SHIFTLR         HAVE_FC_STREAM_IO
 
            HAVE_FC_SYSTEM                HAVE_FFTW3            HAVE_FFTW3_MPI
 
          HAVE_FORTRAN2003                 HAVE_HDF5        HAVE_LIBPAW_ABINIT
 
      HAVE_LIBTETRA_ABINIT                HAVE_LIBXC        HAVE_LINALG_GEMM3M
 
     HAVE_LINALG_SCALAPACK                  HAVE_MPI                 HAVE_MPI2
 
       HAVE_MPI_IALLGATHER       HAVE_MPI_IALLREDUCE        HAVE_MPI_IALLTOALL
 
       HAVE_MPI_IALLTOALLV           HAVE_MPI_IBCAST         HAVE_MPI_IGATHERV
 
        HAVE_MPI_INTEGER16               HAVE_MPI_IO HAVE_MPI_TYPE_CREATE_S...
 
               HAVE_NETCDF       HAVE_NETCDF_FORTRAN             HAVE_OS_LINUX
 
         HAVE_TIMER_ABINIT                                                      
 ++++++++++++++++++++++++++++++++++++++++++++++++++++++++++++++++++++++++++++++

- input  file    -> ./4F-2110_gw.abi
- output file    -> 4F-2110_gw.abo
- root for input  files -> 4F-2110_gw_i
- root for output files -> 4F-2110_gw_o

-instrng: 138 lines of input have been read from file ./4F-2110_gw.abi


 Please give name of formatted atomic psp file (and finish with a newline character)
 For atom type 1, psp file is ../6c.4.hgh

 Please give name of formatted atomic psp file (and finish with a newline character)
 For atom type 2, psp file is ../9f.7.hgh
  read the values zionpsp=  4.0 , pspcod=   3 , lmax=   1
  read the values zionpsp=  7.0 , pspcod=   3 , lmax=   1

 inpspheads: deduce mpsang = 2, n1xccc = 0.

======================================================= 
 invars1m : enter jdtset= 3

 symlatt: the Bravais lattice is oP (primitive orthorhombic)
  xred   is defined in input file
 ingeo: takes atomic coordinates from input array xred

--- !COMMENT
src_file: m_ingeo.F90
src_line: 900
message: |
    The tolerance on symmetries =   1.000E-04 is bigger than 1.0e-8.
    In order to avoid spurious effects, the atomic coordinates have been
    symmetrized before storing them in the dataset internal variable.
    So, do not be surprised by the fact that your input variables (xcart, xred, ...)
    do not correspond exactly to the ones echoed by ABINIT, the latter being used to do the calculations.
    This is not a problem per se.
    Still, in order to avoid this symmetrization (e.g. for specific debugging/development), decrease tolsym to 1.0e-8 or lower,
    or (much preferred) use input primitive vectors that are accurate to better than 1.0e-8.
    This message will only be printed once, even if there are other datasets where tolsym is bigger than 1.0e-8.
...


 symlatt: the Bravais lattice is oP (primitive orthorhombic)

 symlatt: the Bravais lattice is oP (primitive orthorhombic)
  symspgr: 55 or 57
 symspgr: spgroup=  57  Pb c m   (=D2h^11)

======================================================= 
 invars1m : enter jdtset= 4

 symlatt: the Bravais lattice is oP (primitive orthorhombic)
  xred   is defined in input file
 ingeo: takes atomic coordinates from input array xred

 symlatt: the Bravais lattice is oP (primitive orthorhombic)

 symlatt: the Bravais lattice is oP (primitive orthorhombic)
  symspgr: 55 or 57
 symspgr: spgroup=  57  Pb c m   (=D2h^11)

--- !COMMENT
src_file: m_gsphere.F90
src_line: 1644
message: |
    One of the three variables ecutsigx, npwsigx, or nshsigx
    must be non-null. Returning.
...


--- !COMMENT
src_file: m_gsphere.F90
src_line: 1644
message: |
    One of the three variables ecuteps, npweps, or nsheps
    must be non-null. Returning.
...


--- !WARNING
src_file: m_mpinfo.F90
src_line: 2495
message: |
    nproc_spkpt= 64 >= nkpt= 16* nsppol= 1
    The number of processors is larger than nkpt*nsppol. This is a waste. (Ignore this warning if this is not a GS run)
...

 For input ecut=  5.000000E+01 best grid ngfft=      54      60     576
       max ecut=  5.416597E+01

 ==== FFT mesh ====
  FFT mesh divisions ........................    54   60  576
  Augmented FFT divisions ...................    55   61  576
  FFT algorithm .............................   312
  FFT cache size ............................    16
 getmpw: optimal value of mpw= 99620

--- !WARNING
src_file: m_mpinfo.F90
src_line: 2495
message: |
    nproc_spkpt= 64 >= nkpt= 16* nsppol= 1
    The number of processors is larger than nkpt*nsppol. This is a waste. (Ignore this warning if this is not a GS run)
...

 For input ecut=  5.000000E+01 best grid ngfft=      54      60     576
       max ecut=  5.416597E+01

 ==== FFT mesh ====
  FFT mesh divisions ........................    54   60  576
  Augmented FFT divisions ...................    55   61  576
  FFT algorithm .............................   312
  FFT cache size ............................    16
 getmpw: optimal value of mpw= 99620

 DATASET    3 : space group Pb c m (# 57); Bravais oP (primitive ortho.)

 getdim_nloc : deduce lmnmax  =   1, lnmax  =   1,
                      lmnmaxso=   4, lnmaxso=   2.
memory: analysis of memory needs
================================================================================
 Values of the parameters that define the memory need for DATASET  3.
     intxc =       0    ionmov =       0      iscf =       7    lmnmax =       1
     lnmax =       1     mgfft =     576  mpssoang =       2    mqgrid =   27069
     natom =      40  nloc_mem =       1    nspden =       1   nspinor =       1
    nsppol =       1      nsym =       8    n1xccc =       0    ntypat =       2
    occopt =       1   xclevel =       2
-    mband =        1092        mffmem =           1         mkmem =           1
       mpw =       99620          nfft =     1866240          nkpt =          16
================================================================================
P This job should need less than                    2295.525 Mbytes of memory.
  Rough estimation (10% accuracy) of disk space for files :
_ WF disk file :  26558.850 Mbytes ; DEN or POT disk file :     14.240 Mbytes.
================================================================================

 Biggest array : cg(disk), with   1659.9300 MBytes.

 DATASET    4 : space group Pb c m (# 57); Bravais oP (primitive ortho.)

 getdim_nloc : deduce lmnmax  =   1, lnmax  =   1,
                      lmnmaxso=   4, lnmaxso=   2.
memory: analysis of memory needs
================================================================================
 Values of the parameters that define the memory need for DATASET  4.
     intxc =       0    ionmov =       0      iscf =       7    lmnmax =       1
     lnmax =       1     mgfft =     576  mpssoang =       2    mqgrid =   27069
     natom =      40  nloc_mem =       1    nspden =       1   nspinor =       1
    nsppol =       1      nsym =       8    n1xccc =       0    ntypat =       2
    occopt =       1   xclevel =       2
-    mband =        1638        mffmem =           1         mkmem =           1
       mpw =       99620          nfft =     1866240          nkpt =          16
================================================================================
P This job should need less than                    3169.100 Mbytes of memory.
  Rough estimation (10% accuracy) of disk space for files :
_ WF disk file :  39838.273 Mbytes ; DEN or POT disk file :     14.240 Mbytes.
================================================================================

 Biggest array : f_fftgr(disk), with    227.8145 MBytes.
--------------------------------------------------------------------------------
------------- Echo of variables that govern the present computation ------------
--------------------------------------------------------------------------------
-
- outvars: echo of selected default values                                      
-   iomode0 =  0 , fftalg0 =312 , wfoptalg0 =  0
-
- outvars: echo of global parameters not present in the input file              
-  max_nthreads =    0
-
 -outvars: echo values of preprocessed input variables --------
 
 These variables are accessible in NetCDF format (4F-2110_gw_o_OUT.nc)

            acell      8.1495829326E+00  8.4985343024E+00  8.5037675980E+01 Bohr
              amu      1.20110000E+01  1.89984032E+01
             bdgw4         90      93
          chkprim           0
           diemac      1.20000000E+01
             ecut      5.00000000E+01 Hartree
          ecuteps3     5.00000000E+00 Hartree
          ecuteps4     0.00000000E+00 Hartree
         ecutsigx3     0.00000000E+00 Hartree
         ecutsigx4     2.50000000E+01 Hartree
          ecutwfn      5.00000000E+01 Hartree
-          fftalg         312
           getscr3          0
           getscr4          3
           getwfk           2
      gw_icutcoul           2
           istwfk        1    0    0    1    0    0    0    0    0    0
                         0    0    1    0    0    1
              ixc     -208012
           jdtset        3    4
              kpt      0.00000000E+00  0.00000000E+00  0.00000000E+00
                       1.66666667E-01  0.00000000E+00  0.00000000E+00
                       3.33333333E-01  0.00000000E+00  0.00000000E+00
                       5.00000000E-01  0.00000000E+00  0.00000000E+00
                       0.00000000E+00  1.66666667E-01  0.00000000E+00
                       1.66666667E-01  1.66666667E-01  0.00000000E+00
                       3.33333333E-01  1.66666667E-01  0.00000000E+00
                       5.00000000E-01  1.66666667E-01  0.00000000E+00
                       0.00000000E+00  3.33333333E-01  0.00000000E+00
                       1.66666667E-01  3.33333333E-01  0.00000000E+00
                       3.33333333E-01  3.33333333E-01  0.00000000E+00
                       5.00000000E-01  3.33333333E-01  0.00000000E+00
                       0.00000000E+00  5.00000000E-01  0.00000000E+00
                       1.66666667E-01  5.00000000E-01  0.00000000E+00
                       3.33333333E-01  5.00000000E-01  0.00000000E+00
                       5.00000000E-01  5.00000000E-01  0.00000000E+00
            kptgw4     0.00000000E+00  0.00000000E+00  0.00000000E+00
         kptrlatt        6    0    0      0    6    0      0    0    1
          kptrlen      4.88974976E+01
P           mkmem           1
            natom          40
            nband3       1092
            nband4       1638
           ndtset           2
            ngfft          54      60     576
             nkpt          16
           nkptgw3          0
           nkptgw4          1
           npweps3       3101
           npweps4          0
          npwsigx3          0
          npwsigx4      35227
           npwwfn       99421
            nstep         100
             nsym           8
           ntypat           2
              occ3     2.000000  2.000000  2.000000  2.000000  2.000000  2.000000
                       2.000000  2.000000  2.000000  2.000000  2.000000  2.000000
                       2.000000  2.000000  2.000000  2.000000  2.000000  2.000000
                       2.000000  2.000000  2.000000  2.000000  2.000000  2.000000
                       2.000000  2.000000  2.000000  2.000000  2.000000  2.000000
                       2.000000  2.000000  2.000000  2.000000  2.000000  2.000000
                       2.000000  2.000000  2.000000  2.000000  2.000000  2.000000
                       2.000000  2.000000  2.000000  2.000000  2.000000  2.000000
                       2.000000  2.000000  2.000000  2.000000  2.000000  2.000000
                       2.000000  2.000000  2.000000  2.000000  2.000000  2.000000
                       2.000000  2.000000  2.000000  2.000000  2.000000  2.000000
                       2.000000  2.000000  2.000000  2.000000  2.000000  2.000000
                       2.000000  2.000000  2.000000  2.000000  2.000000  2.000000
                       2.000000  2.000000  2.000000  2.000000  2.000000  2.000000
                       2.000000  2.000000  2.000000  2.000000  2.000000  2.000000
                       2.000000  2.000000  0.000000  0.000000  0.000000  0.000000
                       0.000000  0.000000  0.000000  0.000000  0.000000  0.000000
                       0.000000  0.000000  0.000000  0.000000  0.000000  0.000000
                       0.000000  0.000000  0.000000  0.000000  0.000000  0.000000
                       0.000000  0.000000  0.000000  0.000000  0.000000  0.000000
                       0.000000  0.000000  0.000000  0.000000  0.000000  0.000000
                       0.000000  0.000000  0.000000  0.000000  0.000000  0.000000
                       0.000000  0.000000  0.000000  0.000000  0.000000  0.000000
                       0.000000  0.000000  0.000000  0.000000  0.000000  0.000000
                       0.000000  0.000000  0.000000  0.000000  0.000000  0.000000
                       0.000000  0.000000  0.000000  0.000000  0.000000  0.000000
                       0.000000  0.000000  0.000000  0.000000  0.000000  0.000000
                       0.000000  0.000000  0.000000  0.000000  0.000000  0.000000
                       0.000000  0.000000  0.000000  0.000000  0.000000  0.000000
                       0.000000  0.000000  0.000000  0.000000  0.000000  0.000000
                       0.000000  0.000000  0.000000  0.000000  0.000000  0.000000
                       0.000000  0.000000  0.000000  0.000000  0.000000  0.000000
                       0.000000  0.000000  0.000000  0.000000  0.000000  0.000000
                       0.000000  0.000000  0.000000  0.000000  0.000000  0.000000
                       0.000000  0.000000  0.000000  0.000000  0.000000  0.000000
                       0.000000  0.000000  0.000000  0.000000  0.000000  0.000000
                       0.000000  0.000000  0.000000  0.000000  0.000000  0.000000
                       0.000000  0.000000  0.000000  0.000000  0.000000  0.000000
                       0.000000  0.000000  0.000000  0.000000  0.000000  0.000000
                       0.000000  0.000000  0.000000  0.000000  0.000000  0.000000
                       0.000000  0.000000  0.000000  0.000000  0.000000  0.000000
                       0.000000  0.000000  0.000000  0.000000  0.000000  0.000000
                       0.000000  0.000000  0.000000  0.000000  0.000000  0.000000
                       0.000000  0.000000  0.000000  0.000000  0.000000  0.000000
                       0.000000  0.000000  0.000000  0.000000  0.000000  0.000000
                       0.000000  0.000000  0.000000  0.000000  0.000000  0.000000
                       0.000000  0.000000  0.000000  0.000000  0.000000  0.000000
                       0.000000  0.000000  0.000000  0.000000  0.000000  0.000000
                       0.000000  0.000000  0.000000  0.000000  0.000000  0.000000
                       0.000000  0.000000  0.000000  0.000000  0.000000  0.000000
                       0.000000  0.000000  0.000000  0.000000  0.000000  0.000000
                       0.000000  0.000000  0.000000  0.000000  0.000000  0.000000
                       0.000000  0.000000  0.000000  0.000000  0.000000  0.000000
                       0.000000  0.000000  0.000000  0.000000  0.000000  0.000000
                       0.000000  0.000000  0.000000  0.000000  0.000000  0.000000
                       0.000000  0.000000  0.000000  0.000000  0.000000  0.000000
                       0.000000  0.000000  0.000000  0.000000  0.000000  0.000000
                       0.000000  0.000000  0.000000  0.000000  0.000000  0.000000
                       0.000000  0.000000  0.000000  0.000000  0.000000  0.000000
                       0.000000  0.000000  0.000000  0.000000  0.000000  0.000000
                       0.000000  0.000000  0.000000  0.000000  0.000000  0.000000
                       0.000000  0.000000  0.000000  0.000000  0.000000  0.000000
                       0.000000  0.000000  0.000000  0.000000  0.000000  0.000000
                       0.000000  0.000000  0.000000  0.000000  0.000000  0.000000
                       0.000000  0.000000  0.000000  0.000000  0.000000  0.000000
                       0.000000  0.000000  0.000000  0.000000  0.000000  0.000000
                       0.000000  0.000000  0.000000  0.000000  0.000000  0.000000
                       0.000000  0.000000  0.000000  0.000000  0.000000  0.000000
                       0.000000  0.000000  0.000000  0.000000  0.000000  0.000000
                       0.000000  0.000000  0.000000  0.000000  0.000000  0.000000
                       0.000000  0.000000  0.000000  0.000000  0.000000  0.000000
                       0.000000  0.000000  0.000000  0.000000  0.000000  0.000000
                       0.000000  0.000000  0.000000  0.000000  0.000000  0.000000
                       0.000000  0.000000  0.000000  0.000000  0.000000  0.000000
                       0.000000  0.000000  0.000000  0.000000  0.000000  0.000000
                       0.000000  0.000000  0.000000  0.000000  0.000000  0.000000
                       0.000000  0.000000  0.000000  0.000000  0.000000  0.000000
                       0.000000  0.000000  0.000000  0.000000  0.000000  0.000000
                       0.000000  0.000000  0.000000  0.000000  0.000000  0.000000
                       0.000000  0.000000  0.000000  0.000000  0.000000  0.000000
                       0.000000  0.000000  0.000000  0.000000  0.000000  0.000000
                       0.000000  0.000000  0.000000  0.000000  0.000000  0.000000
                       0.000000  0.000000  0.000000  0.000000  0.000000  0.000000
                       0.000000  0.000000  0.000000  0.000000  0.000000  0.000000
                       0.000000  0.000000  0.000000  0.000000  0.000000  0.000000
                       0.000000  0.000000  0.000000  0.000000  0.000000  0.000000
                       0.000000  0.000000  0.000000  0.000000  0.000000  0.000000
                       0.000000  0.000000  0.000000  0.000000  0.000000  0.000000
                       0.000000  0.000000  0.000000  0.000000  0.000000  0.000000
                       0.000000  0.000000  0.000000  0.000000  0.000000  0.000000
                       0.000000  0.000000  0.000000  0.000000  0.000000  0.000000
                       0.000000  0.000000  0.000000  0.000000  0.000000  0.000000
                       0.000000  0.000000  0.000000  0.000000  0.000000  0.000000
                       0.000000  0.000000  0.000000  0.000000  0.000000  0.000000
                       0.000000  0.000000  0.000000  0.000000  0.000000  0.000000
                       0.000000  0.000000  0.000000  0.000000  0.000000  0.000000
                       0.000000  0.000000  0.000000  0.000000  0.000000  0.000000
                       0.000000  0.000000  0.000000  0.000000  0.000000  0.000000
                       0.000000  0.000000  0.000000  0.000000  0.000000  0.000000
                       0.000000  0.000000  0.000000  0.000000  0.000000  0.000000
                       0.000000  0.000000  0.000000  0.000000  0.000000  0.000000
                       0.000000  0.000000  0.000000  0.000000  0.000000  0.000000
                       0.000000  0.000000  0.000000  0.000000  0.000000  0.000000
                       0.000000  0.000000  0.000000  0.000000  0.000000  0.000000
                       0.000000  0.000000  0.000000  0.000000  0.000000  0.000000
                       0.000000  0.000000  0.000000  0.000000  0.000000  0.000000
                       0.000000  0.000000  0.000000  0.000000  0.000000  0.000000
                       0.000000  0.000000  0.000000  0.000000  0.000000  0.000000
                       0.000000  0.000000  0.000000  0.000000  0.000000  0.000000
                       0.000000  0.000000  0.000000  0.000000  0.000000  0.000000
                       0.000000  0.000000  0.000000  0.000000  0.000000  0.000000
                       0.000000  0.000000  0.000000  0.000000  0.000000  0.000000
                       0.000000  0.000000  0.000000  0.000000  0.000000  0.000000
                       0.000000  0.000000  0.000000  0.000000  0.000000  0.000000
                       0.000000  0.000000  0.000000  0.000000  0.000000  0.000000
                       0.000000  0.000000  0.000000  0.000000  0.000000  0.000000
                       0.000000  0.000000  0.000000  0.000000  0.000000  0.000000
                       0.000000  0.000000  0.000000  0.000000  0.000000  0.000000
                       0.000000  0.000000  0.000000  0.000000  0.000000  0.000000
                       0.000000  0.000000  0.000000  0.000000  0.000000  0.000000
                       0.000000  0.000000  0.000000  0.000000  0.000000  0.000000
                       0.000000  0.000000  0.000000  0.000000  0.000000  0.000000
                       0.000000  0.000000  0.000000  0.000000  0.000000  0.000000
                       0.000000  0.000000  0.000000  0.000000  0.000000  0.000000
                       0.000000  0.000000  0.000000  0.000000  0.000000  0.000000
                       0.000000  0.000000  0.000000  0.000000  0.000000  0.000000
                       0.000000  0.000000  0.000000  0.000000  0.000000  0.000000
                       0.000000  0.000000  0.000000  0.000000  0.000000  0.000000
                       0.000000  0.000000  0.000000  0.000000  0.000000  0.000000
                       0.000000  0.000000  0.000000  0.000000  0.000000  0.000000
                       0.000000  0.000000  0.000000  0.000000  0.000000  0.000000
                       0.000000  0.000000  0.000000  0.000000  0.000000  0.000000
                       0.000000  0.000000  0.000000  0.000000  0.000000  0.000000
                       0.000000  0.000000  0.000000  0.000000  0.000000  0.000000
                       0.000000  0.000000  0.000000  0.000000  0.000000  0.000000
                       0.000000  0.000000  0.000000  0.000000  0.000000  0.000000
                       0.000000  0.000000  0.000000  0.000000  0.000000  0.000000
                       0.000000  0.000000  0.000000  0.000000  0.000000  0.000000
                       0.000000  0.000000  0.000000  0.000000  0.000000  0.000000
                       0.000000  0.000000  0.000000  0.000000  0.000000  0.000000
                       0.000000  0.000000  0.000000  0.000000  0.000000  0.000000
                       0.000000  0.000000  0.000000  0.000000  0.000000  0.000000
                       0.000000  0.000000  0.000000  0.000000  0.000000  0.000000
                       0.000000  0.000000  0.000000  0.000000  0.000000  0.000000
                       0.000000  0.000000  0.000000  0.000000  0.000000  0.000000
                       0.000000  0.000000  0.000000  0.000000  0.000000  0.000000
                       0.000000  0.000000  0.000000  0.000000  0.000000  0.000000
                       0.000000  0.000000  0.000000  0.000000  0.000000  0.000000
                       0.000000  0.000000  0.000000  0.000000  0.000000  0.000000
                       0.000000  0.000000  0.000000  0.000000  0.000000  0.000000
                       0.000000  0.000000  0.000000  0.000000  0.000000  0.000000
                       0.000000  0.000000  0.000000  0.000000  0.000000  0.000000
                       0.000000  0.000000  0.000000  0.000000  0.000000  0.000000
                       0.000000  0.000000  0.000000  0.000000  0.000000  0.000000
                       0.000000  0.000000  0.000000  0.000000  0.000000  0.000000
                       0.000000  0.000000  0.000000  0.000000  0.000000  0.000000
                       0.000000  0.000000  0.000000  0.000000  0.000000  0.000000
                       0.000000  0.000000  0.000000  0.000000  0.000000  0.000000
                       0.000000  0.000000  0.000000  0.000000  0.000000  0.000000
                       0.000000  0.000000  0.000000  0.000000  0.000000  0.000000
                       0.000000  0.000000  0.000000  0.000000  0.000000  0.000000
                       0.000000  0.000000  0.000000  0.000000  0.000000  0.000000
                       0.000000  0.000000  0.000000  0.000000  0.000000  0.000000
                       0.000000  0.000000  0.000000  0.000000  0.000000  0.000000
                       0.000000  0.000000  0.000000  0.000000  0.000000  0.000000
                       0.000000  0.000000  0.000000  0.000000  0.000000  0.000000
                       0.000000  0.000000  0.000000  0.000000  0.000000  0.000000
                       0.000000  0.000000  0.000000  0.000000  0.000000  0.000000
                       0.000000  0.000000  0.000000  0.000000  0.000000  0.000000
                       0.000000  0.000000  0.000000  0.000000  0.000000  0.000000
                       0.000000  0.000000  0.000000  0.000000  0.000000  0.000000
                       0.000000  0.000000  0.000000  0.000000  0.000000  0.000000
                       0.000000  0.000000  0.000000  0.000000  0.000000  0.000000
                       0.000000  0.000000  0.000000  0.000000  0.000000  0.000000
                       0.000000  0.000000  0.000000  0.000000  0.000000  0.000000
                       0.000000  0.000000  0.000000  0.000000  0.000000  0.000000
                       0.000000  0.000000  0.000000  0.000000  0.000000  0.000000
                       0.000000  0.000000  0.000000  0.000000  0.000000  0.000000
                       0.000000  0.000000  0.000000  0.000000  0.000000  0.000000
                       0.000000  0.000000  0.000000  0.000000  0.000000  0.000000
                       0.000000  0.000000  0.000000  0.000000  0.000000  0.000000
                       0.000000  0.000000  0.000000  0.000000  0.000000  0.000000
              occ4     2.000000  2.000000  2.000000  2.000000  2.000000  2.000000
                       2.000000  2.000000  2.000000  2.000000  2.000000  2.000000
                       2.000000  2.000000  2.000000  2.000000  2.000000  2.000000
                       2.000000  2.000000  2.000000  2.000000  2.000000  2.000000
                       2.000000  2.000000  2.000000  2.000000  2.000000  2.000000
                       2.000000  2.000000  2.000000  2.000000  2.000000  2.000000
                       2.000000  2.000000  2.000000  2.000000  2.000000  2.000000
                       2.000000  2.000000  2.000000  2.000000  2.000000  2.000000
                       2.000000  2.000000  2.000000  2.000000  2.000000  2.000000
                       2.000000  2.000000  2.000000  2.000000  2.000000  2.000000
                       2.000000  2.000000  2.000000  2.000000  2.000000  2.000000
                       2.000000  2.000000  2.000000  2.000000  2.000000  2.000000
                       2.000000  2.000000  2.000000  2.000000  2.000000  2.000000
                       2.000000  2.000000  2.000000  2.000000  2.000000  2.000000
                       2.000000  2.000000  2.000000  2.000000  2.000000  2.000000
                       2.000000  2.000000  0.000000  0.000000  0.000000  0.000000
                       0.000000  0.000000  0.000000  0.000000  0.000000  0.000000
                       0.000000  0.000000  0.000000  0.000000  0.000000  0.000000
                       0.000000  0.000000  0.000000  0.000000  0.000000  0.000000
                       0.000000  0.000000  0.000000  0.000000  0.000000  0.000000
                       0.000000  0.000000  0.000000  0.000000  0.000000  0.000000
                       0.000000  0.000000  0.000000  0.000000  0.000000  0.000000
                       0.000000  0.000000  0.000000  0.000000  0.000000  0.000000
                       0.000000  0.000000  0.000000  0.000000  0.000000  0.000000
                       0.000000  0.000000  0.000000  0.000000  0.000000  0.000000
                       0.000000  0.000000  0.000000  0.000000  0.000000  0.000000
                       0.000000  0.000000  0.000000  0.000000  0.000000  0.000000
                       0.000000  0.000000  0.000000  0.000000  0.000000  0.000000
                       0.000000  0.000000  0.000000  0.000000  0.000000  0.000000
                       0.000000  0.000000  0.000000  0.000000  0.000000  0.000000
                       0.000000  0.000000  0.000000  0.000000  0.000000  0.000000
                       0.000000  0.000000  0.000000  0.000000  0.000000  0.000000
                       0.000000  0.000000  0.000000  0.000000  0.000000  0.000000
                       0.000000  0.000000  0.000000  0.000000  0.000000  0.000000
                       0.000000  0.000000  0.000000  0.000000  0.000000  0.000000
                       0.000000  0.000000  0.000000  0.000000  0.000000  0.000000
                       0.000000  0.000000  0.000000  0.000000  0.000000  0.000000
                       0.000000  0.000000  0.000000  0.000000  0.000000  0.000000
                       0.000000  0.000000  0.000000  0.000000  0.000000  0.000000
                       0.000000  0.000000  0.000000  0.000000  0.000000  0.000000
                       0.000000  0.000000  0.000000  0.000000  0.000000  0.000000
                       0.000000  0.000000  0.000000  0.000000  0.000000  0.000000
                       0.000000  0.000000  0.000000  0.000000  0.000000  0.000000
                       0.000000  0.000000  0.000000  0.000000  0.000000  0.000000
                       0.000000  0.000000  0.000000  0.000000  0.000000  0.000000
                       0.000000  0.000000  0.000000  0.000000  0.000000  0.000000
                       0.000000  0.000000  0.000000  0.000000  0.000000  0.000000
                       0.000000  0.000000  0.000000  0.000000  0.000000  0.000000
                       0.000000  0.000000  0.000000  0.000000  0.000000  0.000000
                       0.000000  0.000000  0.000000  0.000000  0.000000  0.000000
                       0.000000  0.000000  0.000000  0.000000  0.000000  0.000000
                       0.000000  0.000000  0.000000  0.000000  0.000000  0.000000
                       0.000000  0.000000  0.000000  0.000000  0.000000  0.000000
                       0.000000  0.000000  0.000000  0.000000  0.000000  0.000000
                       0.000000  0.000000  0.000000  0.000000  0.000000  0.000000
                       0.000000  0.000000  0.000000  0.000000  0.000000  0.000000
                       0.000000  0.000000  0.000000  0.000000  0.000000  0.000000
                       0.000000  0.000000  0.000000  0.000000  0.000000  0.000000
                       0.000000  0.000000  0.000000  0.000000  0.000000  0.000000
                       0.000000  0.000000  0.000000  0.000000  0.000000  0.000000
                       0.000000  0.000000  0.000000  0.000000  0.000000  0.000000
                       0.000000  0.000000  0.000000  0.000000  0.000000  0.000000
                       0.000000  0.000000  0.000000  0.000000  0.000000  0.000000
                       0.000000  0.000000  0.000000  0.000000  0.000000  0.000000
                       0.000000  0.000000  0.000000  0.000000  0.000000  0.000000
                       0.000000  0.000000  0.000000  0.000000  0.000000  0.000000
                       0.000000  0.000000  0.000000  0.000000  0.000000  0.000000
                       0.000000  0.000000  0.000000  0.000000  0.000000  0.000000
                       0.000000  0.000000  0.000000  0.000000  0.000000  0.000000
                       0.000000  0.000000  0.000000  0.000000  0.000000  0.000000
                       0.000000  0.000000  0.000000  0.000000  0.000000  0.000000
                       0.000000  0.000000  0.000000  0.000000  0.000000  0.000000
                       0.000000  0.000000  0.000000  0.000000  0.000000  0.000000
                       0.000000  0.000000  0.000000  0.000000  0.000000  0.000000
                       0.000000  0.000000  0.000000  0.000000  0.000000  0.000000
                       0.000000  0.000000  0.000000  0.000000  0.000000  0.000000
                       0.000000  0.000000  0.000000  0.000000  0.000000  0.000000
                       0.000000  0.000000  0.000000  0.000000  0.000000  0.000000
                       0.000000  0.000000  0.000000  0.000000  0.000000  0.000000
                       0.000000  0.000000  0.000000  0.000000  0.000000  0.000000
                       0.000000  0.000000  0.000000  0.000000  0.000000  0.000000
                       0.000000  0.000000  0.000000  0.000000  0.000000  0.000000
                       0.000000  0.000000  0.000000  0.000000  0.000000  0.000000
                       0.000000  0.000000  0.000000  0.000000  0.000000  0.000000
                       0.000000  0.000000  0.000000  0.000000  0.000000  0.000000
                       0.000000  0.000000  0.000000  0.000000  0.000000  0.000000
                       0.000000  0.000000  0.000000  0.000000  0.000000  0.000000
                       0.000000  0.000000  0.000000  0.000000  0.000000  0.000000
                       0.000000  0.000000  0.000000  0.000000  0.000000  0.000000
                       0.000000  0.000000  0.000000  0.000000  0.000000  0.000000
                       0.000000  0.000000  0.000000  0.000000  0.000000  0.000000
                       0.000000  0.000000  0.000000  0.000000  0.000000  0.000000
                       0.000000  0.000000  0.000000  0.000000  0.000000  0.000000
                       0.000000  0.000000  0.000000  0.000000  0.000000  0.000000
                       0.000000  0.000000  0.000000  0.000000  0.000000  0.000000
                       0.000000  0.000000  0.000000  0.000000  0.000000  0.000000
                       0.000000  0.000000  0.000000  0.000000  0.000000  0.000000
                       0.000000  0.000000  0.000000  0.000000  0.000000  0.000000
                       0.000000  0.000000  0.000000  0.000000  0.000000  0.000000
                       0.000000  0.000000  0.000000  0.000000  0.000000  0.000000
                       0.000000  0.000000  0.000000  0.000000  0.000000  0.000000
                       0.000000  0.000000  0.000000  0.000000  0.000000  0.000000
                       0.000000  0.000000  0.000000  0.000000  0.000000  0.000000
                       0.000000  0.000000  0.000000  0.000000  0.000000  0.000000
                       0.000000  0.000000  0.000000  0.000000  0.000000  0.000000
                       0.000000  0.000000  0.000000  0.000000  0.000000  0.000000
                       0.000000  0.000000  0.000000  0.000000  0.000000  0.000000
                       0.000000  0.000000  0.000000  0.000000  0.000000  0.000000
                       0.000000  0.000000  0.000000  0.000000  0.000000  0.000000
                       0.000000  0.000000  0.000000  0.000000  0.000000  0.000000
                       0.000000  0.000000  0.000000  0.000000  0.000000  0.000000
                       0.000000  0.000000  0.000000  0.000000  0.000000  0.000000
                       0.000000  0.000000  0.000000  0.000000  0.000000  0.000000
                       0.000000  0.000000  0.000000  0.000000  0.000000  0.000000
                       0.000000  0.000000  0.000000  0.000000  0.000000  0.000000
                       0.000000  0.000000  0.000000  0.000000  0.000000  0.000000
                       0.000000  0.000000  0.000000  0.000000  0.000000  0.000000
                       0.000000  0.000000  0.000000  0.000000  0.000000  0.000000
                       0.000000  0.000000  0.000000  0.000000  0.000000  0.000000
                       0.000000  0.000000  0.000000  0.000000  0.000000  0.000000
                       0.000000  0.000000  0.000000  0.000000  0.000000  0.000000
                       0.000000  0.000000  0.000000  0.000000  0.000000  0.000000
                       0.000000  0.000000  0.000000  0.000000  0.000000  0.000000
                       0.000000  0.000000  0.000000  0.000000  0.000000  0.000000
                       0.000000  0.000000  0.000000  0.000000  0.000000  0.000000
                       0.000000  0.000000  0.000000  0.000000  0.000000  0.000000
                       0.000000  0.000000  0.000000  0.000000  0.000000  0.000000
                       0.000000  0.000000  0.000000  0.000000  0.000000  0.000000
                       0.000000  0.000000  0.000000  0.000000  0.000000  0.000000
                       0.000000  0.000000  0.000000  0.000000  0.000000  0.000000
                       0.000000  0.000000  0.000000  0.000000  0.000000  0.000000
                       0.000000  0.000000  0.000000  0.000000  0.000000  0.000000
                       0.000000  0.000000  0.000000  0.000000  0.000000  0.000000
                       0.000000  0.000000  0.000000  0.000000  0.000000  0.000000
                       0.000000  0.000000  0.000000  0.000000  0.000000  0.000000
                       0.000000  0.000000  0.000000  0.000000  0.000000  0.000000
                       0.000000  0.000000  0.000000  0.000000  0.000000  0.000000
                       0.000000  0.000000  0.000000  0.000000  0.000000  0.000000
                       0.000000  0.000000  0.000000  0.000000  0.000000  0.000000
                       0.000000  0.000000  0.000000  0.000000  0.000000  0.000000
                       0.000000  0.000000  0.000000  0.000000  0.000000  0.000000
                       0.000000  0.000000  0.000000  0.000000  0.000000  0.000000
                       0.000000  0.000000  0.000000  0.000000  0.000000  0.000000
                       0.000000  0.000000  0.000000  0.000000  0.000000  0.000000
                       0.000000  0.000000  0.000000  0.000000  0.000000  0.000000
                       0.000000  0.000000  0.000000  0.000000  0.000000  0.000000
                       0.000000  0.000000  0.000000  0.000000  0.000000  0.000000
                       0.000000  0.000000  0.000000  0.000000  0.000000  0.000000
                       0.000000  0.000000  0.000000  0.000000  0.000000  0.000000
                       0.000000  0.000000  0.000000  0.000000  0.000000  0.000000
                       0.000000  0.000000  0.000000  0.000000  0.000000  0.000000
                       0.000000  0.000000  0.000000  0.000000  0.000000  0.000000
                       0.000000  0.000000  0.000000  0.000000  0.000000  0.000000
                       0.000000  0.000000  0.000000  0.000000  0.000000  0.000000
                       0.000000  0.000000  0.000000  0.000000  0.000000  0.000000
                       0.000000  0.000000  0.000000  0.000000  0.000000  0.000000
                       0.000000  0.000000  0.000000  0.000000  0.000000  0.000000
                       0.000000  0.000000  0.000000  0.000000  0.000000  0.000000
                       0.000000  0.000000  0.000000  0.000000  0.000000  0.000000
                       0.000000  0.000000  0.000000  0.000000  0.000000  0.000000
                       0.000000  0.000000  0.000000  0.000000  0.000000  0.000000
                       0.000000  0.000000  0.000000  0.000000  0.000000  0.000000
                       0.000000  0.000000  0.000000  0.000000  0.000000  0.000000
                       0.000000  0.000000  0.000000  0.000000  0.000000  0.000000
                       0.000000  0.000000  0.000000  0.000000  0.000000  0.000000
                       0.000000  0.000000  0.000000  0.000000  0.000000  0.000000
                       0.000000  0.000000  0.000000  0.000000  0.000000  0.000000
                       0.000000  0.000000  0.000000  0.000000  0.000000  0.000000
                       0.000000  0.000000  0.000000  0.000000  0.000000  0.000000
                       0.000000  0.000000  0.000000  0.000000  0.000000  0.000000
                       0.000000  0.000000  0.000000  0.000000  0.000000  0.000000
                       0.000000  0.000000  0.000000  0.000000  0.000000  0.000000
                       0.000000  0.000000  0.000000  0.000000  0.000000  0.000000
                       0.000000  0.000000  0.000000  0.000000  0.000000  0.000000
                       0.000000  0.000000  0.000000  0.000000  0.000000  0.000000
                       0.000000  0.000000  0.000000  0.000000  0.000000  0.000000
                       0.000000  0.000000  0.000000  0.000000  0.000000  0.000000
                       0.000000  0.000000  0.000000  0.000000  0.000000  0.000000
                       0.000000  0.000000  0.000000  0.000000  0.000000  0.000000
                       0.000000  0.000000  0.000000  0.000000  0.000000  0.000000
                       0.000000  0.000000  0.000000  0.000000  0.000000  0.000000
                       0.000000  0.000000  0.000000  0.000000  0.000000  0.000000
                       0.000000  0.000000  0.000000  0.000000  0.000000  0.000000
                       0.000000  0.000000  0.000000  0.000000  0.000000  0.000000
                       0.000000  0.000000  0.000000  0.000000  0.000000  0.000000
                       0.000000  0.000000  0.000000  0.000000  0.000000  0.000000
                       0.000000  0.000000  0.000000  0.000000  0.000000  0.000000
                       0.000000  0.000000  0.000000  0.000000  0.000000  0.000000
                       0.000000  0.000000  0.000000  0.000000  0.000000  0.000000
                       0.000000  0.000000  0.000000  0.000000  0.000000  0.000000
                       0.000000  0.000000  0.000000  0.000000  0.000000  0.000000
                       0.000000  0.000000  0.000000  0.000000  0.000000  0.000000
                       0.000000  0.000000  0.000000  0.000000  0.000000  0.000000
                       0.000000  0.000000  0.000000  0.000000  0.000000  0.000000
                       0.000000  0.000000  0.000000  0.000000  0.000000  0.000000
                       0.000000  0.000000  0.000000  0.000000  0.000000  0.000000
                       0.000000  0.000000  0.000000  0.000000  0.000000  0.000000
                       0.000000  0.000000  0.000000  0.000000  0.000000  0.000000
                       0.000000  0.000000  0.000000  0.000000  0.000000  0.000000
                       0.000000  0.000000  0.000000  0.000000  0.000000  0.000000
                       0.000000  0.000000  0.000000  0.000000  0.000000  0.000000
                       0.000000  0.000000  0.000000  0.000000  0.000000  0.000000
                       0.000000  0.000000  0.000000  0.000000  0.000000  0.000000
                       0.000000  0.000000  0.000000  0.000000  0.000000  0.000000
                       0.000000  0.000000  0.000000  0.000000  0.000000  0.000000
                       0.000000  0.000000  0.000000  0.000000  0.000000  0.000000
                       0.000000  0.000000  0.000000  0.000000  0.000000  0.000000
                       0.000000  0.000000  0.000000  0.000000  0.000000  0.000000
                       0.000000  0.000000  0.000000  0.000000  0.000000  0.000000
                       0.000000  0.000000  0.000000  0.000000  0.000000  0.000000
                       0.000000  0.000000  0.000000  0.000000  0.000000  0.000000
                       0.000000  0.000000  0.000000  0.000000  0.000000  0.000000
                       0.000000  0.000000  0.000000  0.000000  0.000000  0.000000
                       0.000000  0.000000  0.000000  0.000000  0.000000  0.000000
                       0.000000  0.000000  0.000000  0.000000  0.000000  0.000000
                       0.000000  0.000000  0.000000  0.000000  0.000000  0.000000
                       0.000000  0.000000  0.000000  0.000000  0.000000  0.000000
                       0.000000  0.000000  0.000000  0.000000  0.000000  0.000000
                       0.000000  0.000000  0.000000  0.000000  0.000000  0.000000
                       0.000000  0.000000  0.000000  0.000000  0.000000  0.000000
                       0.000000  0.000000  0.000000  0.000000  0.000000  0.000000
                       0.000000  0.000000  0.000000  0.000000  0.000000  0.000000
                       0.000000  0.000000  0.000000  0.000000  0.000000  0.000000
                       0.000000  0.000000  0.000000  0.000000  0.000000  0.000000
                       0.000000  0.000000  0.000000  0.000000  0.000000  0.000000
                       0.000000  0.000000  0.000000  0.000000  0.000000  0.000000
                       0.000000  0.000000  0.000000  0.000000  0.000000  0.000000
                       0.000000  0.000000  0.000000  0.000000  0.000000  0.000000
                       0.000000  0.000000  0.000000  0.000000  0.000000  0.000000
                       0.000000  0.000000  0.000000  0.000000  0.000000  0.000000
                       0.000000  0.000000  0.000000  0.000000  0.000000  0.000000
                       0.000000  0.000000  0.000000  0.000000  0.000000  0.000000
                       0.000000  0.000000  0.000000  0.000000  0.000000  0.000000
                       0.000000  0.000000  0.000000  0.000000  0.000000  0.000000
                       0.000000  0.000000  0.000000  0.000000  0.000000  0.000000
                       0.000000  0.000000  0.000000  0.000000  0.000000  0.000000
                       0.000000  0.000000  0.000000  0.000000  0.000000  0.000000
                       0.000000  0.000000  0.000000  0.000000  0.000000  0.000000
                       0.000000  0.000000  0.000000  0.000000  0.000000  0.000000
                       0.000000  0.000000  0.000000  0.000000  0.000000  0.000000
                       0.000000  0.000000  0.000000  0.000000  0.000000  0.000000
                       0.000000  0.000000  0.000000  0.000000  0.000000  0.000000
                       0.000000  0.000000  0.000000  0.000000  0.000000  0.000000
                       0.000000  0.000000  0.000000  0.000000  0.000000  0.000000
                       0.000000  0.000000  0.000000  0.000000  0.000000  0.000000
                       0.000000  0.000000  0.000000  0.000000  0.000000  0.000000
                       0.000000  0.000000  0.000000  0.000000  0.000000  0.000000
                       0.000000  0.000000  0.000000  0.000000  0.000000  0.000000
                       0.000000  0.000000  0.000000  0.000000  0.000000  0.000000
                       0.000000  0.000000  0.000000  0.000000  0.000000  0.000000
                       0.000000  0.000000  0.000000  0.000000  0.000000  0.000000
                       0.000000  0.000000  0.000000  0.000000  0.000000  0.000000
                       0.000000  0.000000  0.000000  0.000000  0.000000  0.000000
                       0.000000  0.000000  0.000000  0.000000  0.000000  0.000000
                       0.000000  0.000000  0.000000  0.000000  0.000000  0.000000
                       0.000000  0.000000  0.000000  0.000000  0.000000  0.000000
                       0.000000  0.000000  0.000000  0.000000  0.000000  0.000000
                       0.000000  0.000000  0.000000  0.000000  0.000000  0.000000
                       0.000000  0.000000  0.000000  0.000000  0.000000  0.000000
                       0.000000  0.000000  0.000000  0.000000  0.000000  0.000000
                       0.000000  0.000000  0.000000  0.000000  0.000000  0.000000
                       0.000000  0.000000  0.000000  0.000000  0.000000  0.000000
                       0.000000  0.000000  0.000000  0.000000  0.000000  0.000000
                       0.000000  0.000000  0.000000  0.000000  0.000000  0.000000
                       0.000000  0.000000  0.000000  0.000000  0.000000  0.000000
                       0.000000  0.000000  0.000000  0.000000  0.000000  0.000000
                       0.000000  0.000000  0.000000  0.000000  0.000000  0.000000
                       0.000000  0.000000  0.000000  0.000000  0.000000  0.000000
                       0.000000  0.000000  0.000000  0.000000  0.000000  0.000000
                       0.000000  0.000000  0.000000  0.000000  0.000000  0.000000
                       0.000000  0.000000  0.000000  0.000000  0.000000  0.000000
                       0.000000  0.000000  0.000000  0.000000  0.000000  0.000000
                       0.000000  0.000000  0.000000  0.000000  0.000000  0.000000
        optdriver3          3
        optdriver4          4
           ppmfrq3     6.13713734E-01 Hartree
           ppmfrq4     0.00000000E+00 Hartree
          spgroup          57
           symrel      1  0  0   0  1  0   0  0  1      -1  0  0   0 -1  0   0  0 -1
                      -1  0  0   0  1  0   0  0 -1       1  0  0   0 -1  0   0  0  1
                      -1  0  0   0 -1  0   0  0  1       1  0  0   0  1  0   0  0 -1
                       1  0  0   0 -1  0   0  0 -1      -1  0  0   0  1  0   0  0  1
            tnons      0.0000000  0.0000000  0.0000000    -0.0000000  0.0000000  0.0000000
                       0.5000000  0.5000000  0.0000000     0.5000000  0.5000000  0.0000000
                      -0.0000000  0.5000000  0.0000000     0.0000000  0.5000000  0.0000000
                       0.5000000  0.0000000  0.0000000     0.5000000  0.0000000  0.0000000
           toldfe      1.00000000E-08 Hartree
           tolsym      1.00000000E-04
            typat      1  1  1  1  1  1  1  1  1  1  1  1  1  1  1  1  1  1  1  1
                       1  1  1  1  1  1  1  1  1  1  1  1  2  2  2  2  2  2  2  2
          usekden           1
          vcutgeo      1.0000000  1.0000000  0.0000000
              wtk        0.02778    0.05556    0.05556    0.02778    0.05556    0.11111
                         0.11111    0.05556    0.05556    0.11111    0.11111    0.05556
                         0.02778    0.05556    0.05556    0.02778
           xangst      4.0200657419E+00  1.8285246137E+00  1.8189619946E+01
                       2.9250780542E-01  2.6687060456E+00  2.6810380054E+01
                       1.8637789682E+00  2.6687060456E+00  2.6810380054E+01
                       2.4487945791E+00  1.8285246137E+00  1.8189619946E+01
                       2.4487945791E+00  4.0771399433E+00  2.6810380054E+01
                       1.8637789682E+00  4.2009071597E-01  1.8189619946E+01
                       2.9250780542E-01  4.2009071597E-01  1.8189619946E+01
                       4.0200657419E+00  4.0771399433E+00  2.6810380054E+01
                       4.0448461619E+00  1.8749453844E+00  2.0620134630E+01
                       2.6772738547E-01  2.6222852749E+00  2.4379865370E+01
                       1.8885593882E+00  2.6222852749E+00  2.4379865370E+01
                       2.4240141592E+00  1.8749453844E+00  2.0620134630E+01
                       2.4240141592E+00  4.1235607140E+00  2.4379865370E+01
                       1.8885593882E+00  3.7366994524E-01  2.0620134630E+01
                       2.6772738547E-01  3.7366994524E-01  2.0620134630E+01
                       4.0448461619E+00  4.1235607140E+00  2.4379865370E+01
                       4.0437486753E+00  1.8735582678E+00  2.3126592582E+01
                       2.6882487204E-01  2.6236723915E+00  2.1873407418E+01
                       1.8874619016E+00  2.6236723915E+00  2.1873407418E+01
                       2.4251116458E+00  1.8735582678E+00  2.3126592582E+01
                       2.4251116458E+00  4.1221735974E+00  2.1873407418E+01
                       1.8874619016E+00  3.7505706185E-01  2.3126592582E+01
                       2.6882487204E-01  3.7505706185E-01  2.3126592582E+01
                       4.0437486753E+00  4.1221735974E+00  2.1873407418E+01
                       4.0359236766E+00  1.8573310566E+00  2.5635894280E+01
                       2.7664987080E-01  2.6398996027E+00  1.9364105720E+01
                       1.8796369028E+00  2.6398996027E+00  1.9364105720E+01
                       2.4329366445E+00  1.8573310566E+00  2.5635894280E+01
                       2.4329366445E+00  4.1059463862E+00  1.9364105720E+01
                       1.8796369028E+00  3.9128427303E-01  2.5635894280E+01
                       2.7664987080E-01  3.9128427303E-01  2.5635894280E+01
                       4.0359236766E+00  4.1059463862E+00  1.9364105720E+01
                       4.3134588900E+00  2.2175679753E+00  2.8048380942E+01
                      -8.8534263253E-04  2.2796626839E+00  1.6951619058E+01
                       2.1571721163E+00  2.2796626839E+00  1.6951619058E+01
                       2.1554014311E+00  2.2175679753E+00  2.8048380942E+01
                       2.1554014311E+00  4.4661833050E+00  1.6951619058E+01
                       2.1571721163E+00  3.1047354296E-02  2.8048380942E+01
                      -8.8534263253E-04  3.1047354296E-02  2.8048380942E+01
                       4.3134588900E+00  4.4661833050E+00  1.6951619058E+01
            xcart      7.5968232885E+00  3.4554107471E+00  3.4373400159E+01
                       5.5275964397E-01  5.0431235554E+00  5.0664275821E+01
                       3.5220318222E+00  5.0431235554E+00  5.0664275821E+01
                       4.6275511103E+00  3.4554107471E+00  3.4373400159E+01
                       4.6275511103E+00  7.7046778983E+00  5.0664275821E+01
                       3.5220318222E+00  7.9385640416E-01  3.4373400159E+01
                       5.5275964397E-01  7.9385640416E-01  3.4373400159E+01
                       7.5968232885E+00  7.7046778983E+00  5.0664275821E+01
                       7.6436514956E+00  3.5431332906E+00  3.8966407274E+01
                       5.0593143681E-01  4.9554010118E+00  4.6071268706E+01
                       3.5688600293E+00  4.9554010118E+00  4.6071268706E+01
                       4.5807229031E+00  3.5431332906E+00  3.8966407274E+01
                       4.5807229031E+00  7.7924004418E+00  4.6071268706E+01
                       3.5688600293E+00  7.0613386060E-01  3.8966407274E+01
                       5.0593143681E-01  7.0613386060E-01  3.8966407274E+01
                       7.6436514956E+00  7.7924004418E+00  4.6071268706E+01
                       7.6415775466E+00  3.5405120201E+00  4.3702926368E+01
                       5.0800538587E-01  4.9580222823E+00  4.1334749612E+01
                       3.5667860803E+00  4.9580222823E+00  4.1334749612E+01
                       4.5827968522E+00  3.5405120201E+00  4.3702926368E+01
                       4.5827968522E+00  7.7897791713E+00  4.1334749612E+01
                       3.5667860803E+00  7.0875513110E-01  4.3702926368E+01
                       5.0800538587E-01  7.0875513110E-01  4.3702926368E+01
                       7.6415775466E+00  7.7897791713E+00  4.1334749612E+01
                       7.6267904419E+00  3.5098470351E+00  4.8444819360E+01
                       5.2279249051E-01  4.9886872673E+00  3.6592856620E+01
                       3.5519989756E+00  4.9886872673E+00  3.6592856620E+01
                       4.5975839568E+00  3.5098470351E+00  4.8444819360E+01
                       4.5975839568E+00  7.7591141863E+00  3.6592856620E+01
                       3.5519989756E+00  7.3942011613E-01  4.8444819360E+01
                       5.2279249051E-01  7.3942011613E-01  4.8444819360E+01
                       7.6267904419E+00  7.7591141863E+00  3.6592856620E+01
                       8.1512559875E+00  4.1905961544E+00  5.3003758451E+01
                      -1.6730551093E-03  4.3079381480E+00  3.2033917529E+01
                       4.0764645212E+00  4.3079381480E+00  3.2033917529E+01
                       4.0731184112E+00  4.1905961544E+00  5.3003758451E+01
                       4.0731184112E+00  8.4398633056E+00  3.2033917529E+01
                       4.0764645212E+00  5.8670996771E-02  5.3003758451E+01
                      -1.6730551093E-03  5.8670996771E-02  5.3003758451E+01
                       8.1512559875E+00  8.4398633056E+00  3.2033917529E+01
             xred      9.3217325982E-01  4.0658902160E-01  4.0421377658E-01
                       6.7826740159E-02  5.9341097840E-01  5.9578622342E-01
                       4.3217325982E-01  5.9341097840E-01  5.9578622342E-01
                       5.6782674016E-01  4.0658902160E-01  4.0421377658E-01
                       5.6782674016E-01  9.0658902160E-01  5.9578622342E-01
                       4.3217325982E-01  9.3410978400E-02  4.0421377658E-01
                       6.7826740159E-02  9.3410978400E-02  4.0421377658E-01
                       9.3217325982E-01  9.0658902160E-01  5.9578622342E-01
                       9.3791934616E-01  4.1691110073E-01  4.5822521400E-01
                       6.2080653819E-02  5.8308889927E-01  5.4177478600E-01
                       4.3791934616E-01  5.8308889927E-01  5.4177478600E-01
                       5.6208065382E-01  4.1691110073E-01  4.5822521400E-01
                       5.6208065382E-01  9.1691110073E-01  5.4177478600E-01
                       4.3791934616E-01  8.3088899271E-02  4.5822521400E-01
                       6.2080653819E-02  8.3088899271E-02  4.5822521400E-01
                       9.3791934616E-01  9.1691110073E-01  5.4177478600E-01
                       9.3766486086E-01  4.1660266278E-01  5.1392427961E-01
                       6.2335139119E-02  5.8339733722E-01  4.8607572039E-01
                       4.3766486086E-01  5.8339733722E-01  4.8607572039E-01
                       5.6233513912E-01  4.1660266278E-01  5.1392427961E-01
                       5.6233513912E-01  9.1660266278E-01  4.8607572039E-01
                       4.3766486086E-01  8.3397337221E-02  5.1392427961E-01
                       6.2335139119E-02  8.3397337221E-02  5.1392427961E-01
                       9.3766486086E-01  9.1660266278E-01  4.8607572039E-01
                       9.3585039934E-01  4.1299439529E-01  5.6968653955E-01
                       6.4149600640E-02  5.8700560471E-01  4.3031346045E-01
                       4.3585039934E-01  5.8700560471E-01  4.3031346045E-01
                       5.6414960064E-01  4.1299439529E-01  5.6968653955E-01
                       5.6414960064E-01  9.1299439529E-01  4.3031346045E-01
                       4.3585039934E-01  8.7005604710E-02  5.6968653955E-01
                       6.4149600640E-02  8.7005604710E-02  5.6968653955E-01
                       9.3585039934E-01  9.1299439529E-01  4.3031346045E-01
                       1.0002052933E+00  4.9309633936E-01  6.2329735426E-01
                      -2.0529334115E-04  5.0690366064E-01  3.7670264574E-01
                       5.0020529332E-01  5.0690366064E-01  3.7670264574E-01
                       4.9979470666E-01  4.9309633936E-01  6.2329735426E-01
                       4.9979470666E-01  9.9309633936E-01  3.7670264574E-01
                       5.0020529332E-01  6.9036606412E-03  6.2329735426E-01
                      -2.0529334115E-04  6.9036606412E-03  6.2329735426E-01
                       1.0002052933E+00  9.9309633936E-01  3.7670264574E-01
            znucl        6.00000    9.00000

================================================================================

 chkinp: Checking input parameters for consistency, jdtset=   3.

 chkinp: Checking input parameters for consistency, jdtset=   4.
 DATA TYPE INFORMATION: 
 REAL:      Data type name: REAL(DP) 
            Kind value:      8
            Precision:      15
            Smallest nonnegligible quantity relative to 1: 0.22204460E-015
            Smallest positive number:                      0.22250739E-307
            Largest representable number:                  0.17976931E+309
 INTEGER:   Data type name: INTEGER(default) 
            Kind value: 4
            Bit size:   32
            Largest representable number: 2147483647
 LOGICAL:   Data type name: LOGICAL 
            Kind value: 4
 CHARACTER: Data type name: CHARACTER             Kind value: 1

  ==== OpenMP parallelism is OFF ====
 
  ==== Using MPI-2 specifications ==== 
  MPI-IO support is ON
  xmpi_tag_ub ................    268435455
  xmpi_bsize_ch ..............            1
  xmpi_bsize_int .............            4
  xmpi_bsize_sp ..............            4
  xmpi_bsize_dp ..............            8
  xmpi_bsize_spc .............            8
  xmpi_bsize_dpc .............           16
  xmpio_bsize_frm ............            4
  xmpi_address_kind ..........            8
  xmpi_offset_kind ...........            8
  MPI_WTICK ..................    2.0000000000000000E-008

================================================================================
== DATASET  3 ==================================================================
-   mpi_nproc: 64, omp_nthreads: -1 (-1 if OMP is not activated)


--- !COMMENT
src_file: m_xgScalapack.F90
src_line: 236
message: |
    xgScalapack in auto mode
...

 mkfilename : getwfk/=0, take file _WFK from output of DATASET   2.


 getdim_nloc : deduce lmnmax  =   1, lnmax  =   1,
                      lmnmaxso=   4, lnmaxso=   2.
 Tran & Blaha 09
 F. Tran and P. Blaha, Phys. Rev. Lett. 102, 226401 (2009)
 Perdew & Wang
 J. P. Perdew and Y. Wang, Phys. Rev. B 45, 13244 (1992)

 SCREENING: Calculation of the susceptibility and dielectric matrices 

 Based on a program developped by R.W. Godby, V. Olevano, G. Onida, and L. Reining.
 Incorporated in ABINIT by V. Olevano, G.-M. Rignanese, and M. Torrent.
.Using single precision arithmetic ; gwpc =  4

 Unit cell volume ucvol=  5.8896678E+03 bohr^3
 Angles (23,13,12)=  9.00000000E+01  9.00000000E+01  9.00000000E+01 degrees

 getcut: wavevector=  0.0000  0.0000  0.0000  ngfft=  54  60 576
         ecut(hartree)=     50.000   => boxcut(ratio)=   2.08165

 ==== Dense FFT mesh used for densities and potentials ====
  FFT mesh divisions ........................    54   60  576
  Augmented FFT divisions ...................    55   61  576
  FFT algorithm .............................   312
  FFT cache size ............................    16
- pspini: atom type   1  psp file is ../6c.4.hgh
- pspatm: opening atomic psp file    ../6c.4.hgh
- Hartwigsen-Goedecker-Hutter psp for C,  from PRB58, 3641 (1998)
-  6.00000   4.00000     10605                znucl, zion, pspdat
    3    1    1    0      2001   0.00000      pspcod,pspxc,lmax,lloc,mmax,r2well

--- !WARNING
src_file: m_pspini.F90
src_line: 1039
message: |
    Pseudopotential file pspxc: 1, not equal to input ixc: -208012.
    These parameters must agree to get the same xc in ABINIT code as in psp construction.
    Action: check psp design or input file.
    Assume experienced user. Execution will continue.
...

 rloc=   0.3488300
 cc1 =  -8.5137710; cc2 =   1.2284320; cc3 =   0.0000000; cc4 =   0.0000000
 rrs =   0.3045530; h11s=   9.5228420; h22s=   0.0000000; h33s=   0.0000000
 rrp =   0.2326770; h11p=   0.0000000; h22p=   0.0000000; h33p=   0.0000000
                    k11p=   0.0041040; k22p=   0.0000000; k33p=   0.0000000
-  Local part computed in reciprocal space.

 pspatm : COMMENT -
  the projectors are not normalized,
  so that the KB energies are not consistent with 
  definition in PRB44, 8503 (1991). 
  However, this does not influence the results obtained hereafter.
  pspatm : epsatm=   -0.16969744
         --- l  ekb(1:nproj) -->
             0    0.953587
 pspatm: atomic psp has been read  and splines computed

- pspini: atom type   2  psp file is ../9f.7.hgh
- pspatm: opening atomic psp file    ../9f.7.hgh
- Hartwigsen-Goedecker-Hutter psp for F,  from PRB58, 3641 (1998)
-  9.00000   7.00000     10605                znucl, zion, pspdat
    3    1    1    0      2001   0.00000      pspcod,pspxc,lmax,lloc,mmax,r2well

--- !WARNING
src_file: m_pspini.F90
src_line: 1039
message: |
    Pseudopotential file pspxc: 1, not equal to input ixc: -208012.
    These parameters must agree to get the same xc in ABINIT code as in psp construction.
    Action: check psp design or input file.
    Assume experienced user. Execution will continue.
...

 rloc=   0.2185250
 cc1 = -21.3073610; cc2 =   3.0728690; cc3 =   0.0000000; cc4 =   0.0000000
 rrs =   0.1955670; h11s=  23.5849420; h22s=   0.0000000; h33s=   0.0000000
 rrp =   0.1742680; h11p=   0.0000000; h22p=   0.0000000; h33p=   0.0000000
                    k11p=   0.0151060; k22p=   0.0000000; k33p=   0.0000000
-  Local part computed in reciprocal space.

 pspatm : COMMENT -
  the projectors are not normalized,
  so that the KB energies are not consistent with 
  definition in PRB44, 8503 (1991). 
  However, this does not influence the results obtained hereafter.
  pspatm : epsatm=    0.11349172
         --- l  ekb(1:nproj) -->
             0    0.625355
 pspatm: atomic psp has been read  and splines computed

  -8.32118732E+02                                ecore*ucvol(ha*bohr**3)
 ==== Info on pseudopotentials ====
  Norm-conserving pseudopotentials
  Number of pseudopotentials ..    2
  Number of types of atoms   ..    2
  Calculation with spin-orbit coupling 
  Max number of channels (spin-orbit included)   3
  - Atom type    1 has spin-orbit characteristics (pspso=  0)
  - Atom type    2 has spin-orbit characteristics (pspso=  0)
  Nonlocal part applied using Legendre polynomials
  Max number of non-local projectors over l and type   1
  Highest angular momentum +1 .......   2
  Max number of (l,n)   components ..   2
  Max number of (l,m,n) components ..   2

 Info on the Q-grid used for form factors in spline form: 
   Number of q-points for radial functions ffspl ..  27069
   Number of q-points for vlspl ...................  27069
   vloc is computed in Reciprocal Space
   model core charge treated in real-space

  XC functional for type 1 is 1
  Pseudo valence available: no
  XC functional for type 2 is 1
  Pseudo valence available: no


 GW calculation type              =    0
 zcut to avoid poles in chi0 [eV] =   0.100000

 Reading eigenvalues from: 4F-2110_gw_o_DS2_WFK , with iomode: IO_MODE_MPI
 wfk_read_eigenvalues completed. cpu:  0.01 [s] , wall:  0.32 [s] <<< TIME

 Sorting g-vecs for an output of states on an unique "big" PW basis.
 Since the number of g's to be written on file
 was 0 or too large, it has been set to the max. value.,
 computed from the union of the sets of G vectors for the different k-points.
 Number of G-vectors is: *****

  ==== Info on the Cryst% object ====
 Real(R)+Recip(G) space primitive vectors, cartesian coordinates (Bohr,Bohr^-1):
 R(1)=  8.1495829  0.0000000  0.0000000  G(1)=  0.1227057  0.0000000  0.0000000
 R(2)=  0.0000000  8.4985343  0.0000000  G(2)=  0.0000000  0.1176673  0.0000000
 R(3)=  0.0000000  0.0000000 85.0376760  G(3)=  0.0000000  0.0000000  0.0117595
 Unit cell volume ucvol=  5.8896678E+03 bohr^3
 Angles (23,13,12)=  9.00000000E+01  9.00000000E+01  9.00000000E+01 degrees
 Time-reversal symmetry is present
 Reduced atomic positions [iatom, xred, symbol]:
    1)    0.9321733  0.4065890  0.4042138   C
    2)    0.0678267  0.5934110  0.5957862   C
    3)    0.4321733  0.5934110  0.5957862   C
    4)    0.5678267  0.4065890  0.4042138   C
    5)    0.5678267  0.9065890  0.5957862   C
    6)    0.4321733  0.0934110  0.4042138   C
    7)    0.0678267  0.0934110  0.4042138   C
    8)    0.9321733  0.9065890  0.5957862   C
    9)    0.9379193  0.4169111  0.4582252   C
   10)    0.0620807  0.5830889  0.5417748   C
   11)    0.4379193  0.5830889  0.5417748   C
   12)    0.5620807  0.4169111  0.4582252   C
   13)    0.5620807  0.9169111  0.5417748   C
   14)    0.4379193  0.0830889  0.4582252   C
   15)    0.0620807  0.0830889  0.4582252   C
   16)    0.9379193  0.9169111  0.5417748   C
   17)    0.9376649  0.4166027  0.5139243   C
   18)    0.0623351  0.5833973  0.4860757   C
   19)    0.4376649  0.5833973  0.4860757   C
   20)    0.5623351  0.4166027  0.5139243   C
   21)    0.5623351  0.9166027  0.4860757   C
   22)    0.4376649  0.0833973  0.5139243   C
   23)    0.0623351  0.0833973  0.5139243   C
   24)    0.9376649  0.9166027  0.4860757   C
   25)    0.9358504  0.4129944  0.5696865   C
   26)    0.0641496  0.5870056  0.4303135   C
   27)    0.4358504  0.5870056  0.4303135   C
   28)    0.5641496  0.4129944  0.5696865   C
   29)    0.5641496  0.9129944  0.4303135   C
   30)    0.4358504  0.0870056  0.5696865   C
   31)    0.0641496  0.0870056  0.5696865   C
   32)    0.9358504  0.9129944  0.4303135   C
   33)    1.0002053  0.4930963  0.6232974   F
   34)   -0.0002053  0.5069037  0.3767026   F
   35)    0.5002053  0.5069037  0.3767026   F
   36)    0.4997947  0.4930963  0.6232974   F
   37)    0.4997947  0.9930963  0.3767026   F
   38)    0.5002053  0.0069037  0.6232974   F
   39)   -0.0002053  0.0069037  0.6232974   F
   40)    1.0002053  0.9930963  0.3767026   F
 ==== K-mesh for the wavefunctions ====
 Number of points in the irreducible wedge :    16
 Reduced coordinates and weights : 

     1)     0.00000000E+00  0.00000000E+00  0.00000000E+00       0.02778
     2)     1.66666667E-01  0.00000000E+00  0.00000000E+00       0.05556
     3)     3.33333333E-01  0.00000000E+00  0.00000000E+00       0.05556
     4)     5.00000000E-01  0.00000000E+00  0.00000000E+00       0.02778
     5)     0.00000000E+00  1.66666667E-01  0.00000000E+00       0.05556
     6)     1.66666667E-01  1.66666667E-01  0.00000000E+00       0.11111
     7)     3.33333333E-01  1.66666667E-01  0.00000000E+00       0.11111
     8)     5.00000000E-01  1.66666667E-01  0.00000000E+00       0.05556
     9)     0.00000000E+00  3.33333333E-01  0.00000000E+00       0.05556
    10)     1.66666667E-01  3.33333333E-01  0.00000000E+00       0.11111
    11)     3.33333333E-01  3.33333333E-01  0.00000000E+00       0.11111
    12)     5.00000000E-01  3.33333333E-01  0.00000000E+00       0.05556
    13)     0.00000000E+00  5.00000000E-01  0.00000000E+00       0.02778
    14)     1.66666667E-01  5.00000000E-01  0.00000000E+00       0.05556
    15)     3.33333333E-01  5.00000000E-01  0.00000000E+00       0.05556
    16)     5.00000000E-01  5.00000000E-01  0.00000000E+00       0.02778

 Together with  8 symmetry operations and time-reversal symmetry 
 yields    36 points in the full Brillouin Zone.


 ==== Q-mesh for the screening function ====
 Number of points in the irreducible wedge :    16
 Reduced coordinates and weights : 

     1)     0.00000000E+00  0.00000000E+00  0.00000000E+00       0.02778
     2)     1.66666667E-01  0.00000000E+00  0.00000000E+00       0.05556
     3)     3.33333333E-01  0.00000000E+00  0.00000000E+00       0.05556
     4)     5.00000000E-01  0.00000000E+00  0.00000000E+00       0.02778
     5)     0.00000000E+00  1.66666667E-01  0.00000000E+00       0.05556
     6)     1.66666667E-01  1.66666667E-01  0.00000000E+00       0.11111
     7)     3.33333333E-01  1.66666667E-01  0.00000000E+00       0.11111
     8)     5.00000000E-01  1.66666667E-01  0.00000000E+00       0.05556
     9)     0.00000000E+00  3.33333333E-01  0.00000000E+00       0.05556
    10)     1.66666667E-01  3.33333333E-01  0.00000000E+00       0.11111
    11)     3.33333333E-01  3.33333333E-01  0.00000000E+00       0.11111
    12)     5.00000000E-01  3.33333333E-01  0.00000000E+00       0.05556
    13)     0.00000000E+00  5.00000000E-01  0.00000000E+00       0.02778
    14)     1.66666667E-01  5.00000000E-01  0.00000000E+00       0.05556
    15)     3.33333333E-01  5.00000000E-01  0.00000000E+00       0.05556
    16)     5.00000000E-01  5.00000000E-01  0.00000000E+00       0.02778

 Together with  8 symmetry operations and time-reversal symmetry 
 yields    36 points in the full Brillouin Zone.


 Optimal value for ng0sh: [1, 1, 0]
  Due to umklapp processes : ecutepspg0=    4.9997566118851529     

 setmesh: npwwfn        =    99421; Max (m1,m2,m3)   =     12    13   135
          npweps/npwsigx=     3101; Max (mm1,mm2,mm3)=      5     5    42
          mG0 added     =   1  1  0
 calculated ecutwfn          =  50.000 [Ha] 
 calculated ecutsigx/ecuteps =   5.000 [Ha]
 using method =  2 with ecuteff =  86.622 [Ha]
 Finding a FFT mesh compatible with all the symmetries
 setmesh: divisor mesh 2 2 1
 setmesh: FFT mesh size selected  =    36x   36x  360
          total number of points  =       466560

  simple integral   21.174284590561864     
  q0 sphere :    1.1698934414753853E-003  q0_vol cyl    1.1466451907532298E-003
  spherical approximation    8420.7724547140970     
  Cylindrical cutoff value    8572.9056877732874     

 === Surface cutoff === 

  Cutoff radius ....................    42.5188 [Bohr] 
  Central plane passing through ....       0.00      0.00      0.00 (r.l.u) 

 q-points for optical limit:   1
     1)      0.000010    0.000020    0.000030

 ==== FFT mesh used for oscillator strengths ====
  FFT mesh divisions ........................    36   36  360
  Augmented FFT divisions ...................    37   37  360
  FFT algorithm .............................   312
  FFT cache size ............................    16
 Top of valence: -86.6623 (eV)
 Bottom of conduction: -88.8250 (eV)
 Fermi level: -87.7436  (eV) 

 Memory needed for Fourier components u(G):   1313.3 [Mb] <<< MEM
 Storing wavefunctions in single precision array as `enable_gw_dpc="no"`
 Memory needed for real-space u(r):   6150.9 [Mb] <<< MEM
 Memory needed for bks_tab:      1.1 [Mb] <<< MEM
 wfd_init completed. cpu:  1.63 [s] , wall:  1.63 [s] <<< TIME
 ==== Info on the Wfd% object ====
  Number of irreducible k-points ........ 16
  Number of spinorial components ........ 1
  Number of spin-density components ..... 1
  Number of spin polarizations .......... 1
  Plane wave cutoff energy ..............  50.0
  Max number of G-vectors ............... 99620
  Total number of FFT points ............ 466560
  Number of FFT points treated by me .... 466560


 ==== FFT mesh for wavefunctions ====
  FFT mesh divisions ........................    36   36  360
  Augmented FFT divisions ...................    37   37  360
  FFT algorithm .............................   312
  FFT cache size ............................    16

 Total number of (b,k,s) states stored by this rank: 1728
 Memory allocated for Fourier components u(G):   1313.3 [Mb] <<< MEM
 Memory allocated for real-space u(r):      0.0 [Mb] <<< MEM
 Memory needed for wfd%s datastructure:      0.0 [Mb] <<< MEM
 Memory needed for wfd%s(0)%k datastructure:      0.0 [Mb] <<< MEM
 Memory allocated for Kdata array:      0.0 [Mb] <<< MEM



 wfd_read_wfk: Reading file: 4F-2110_gw_o_DS2_WFK  with iomode: IO_MODE_MPI , master_only: yes
 If MPI-IO is too slow, use the command line option `abinit --enforce-fortran-io ...` 
  to make the master proc read data with Fortran-IO and then broadcast (requires more memory)
 About to read: 1728  (b, k, s) states in total.
 For spin: 1 , will read: 16  k-points.
 Reading k-point [1/16] spin [1/1] completed. cpu:  3.44 [s] , wall:  4.40 [s] <<< TIME
 Reading k-point [2/16] spin [1/1] completed. cpu:  3.48 [s] , wall:  4.02 [s] <<< TIME
 Reading k-point [3/16] spin [1/1] completed. cpu:  3.48 [s] , wall:  4.00 [s] <<< TIME
 Reading k-point [4/16] spin [1/1] completed. cpu:  3.48 [s] , wall:  4.01 [s] <<< TIME
 Reading k-point [5/16] spin [1/1] completed. cpu:  3.41 [s] , wall:  3.97 [s] <<< TIME
 Reading k-point [6/16] spin [1/1] completed. cpu:  3.49 [s] , wall:  4.01 [s] <<< TIME
 Reading k-point [7/16] spin [1/1] completed. cpu:  3.34 [s] , wall:  3.86 [s] <<< TIME
 Reading k-point [8/16] spin [1/1] completed. cpu:  3.44 [s] , wall:  3.96 [s] <<< TIME
 Reading k-point [9/16] spin [1/1] completed. cpu:  3.41 [s] , wall:  3.89 [s] <<< TIME
 Reading k-point [10/16] spin [1/1] completed. cpu:  3.42 [s] , wall:  3.93 [s] <<< TIME
 WFK IO completed. cpu: 55.39 [s] , wall: 01:04 [minutes] <<< TIME


  CHECK           -1         576
 planewave contribution to nelect:  184.0000
 planewave contribution to nelect:   85.4194
 Number of electrons calculated from density =  184.0000; Expected =  184.0000
 average of density, n =  0.031241
 r_s =    1.9697
 omega_plasma =   17.0498 [eV]

 Total charge density [el/Bohr^3]
      Maximum=    7.0533E-02  at reduced coord.    0.8519    0.7500    0.7743
      Minimum=    0.0000E+00  at reduced coord.    0.0000    0.0000    0.2691
   Integrated=    1.8400E+02
 Total kinetic energy density [Ha/Bohr^3]
      Maximum=    3.2472E-02  at reduced coord.    0.4444    0.8000    0.7865
      Minimum=    0.0000E+00  at reduced coord.    0.0370    0.0333    0.4931
   Integrated=    8.5419E+01

 1/G**2 cut-off applied in the following step : cutoff-mode = CRYSTAL

 1/G**2 cut-off applied in the following step : cutoff-mode = CRYSTAL

 1/G**2 cut-off applied in the following step : cutoff-mode = CRYSTAL

In the mGGA functional TB09, c =  0.547163

 calculating chi0 at frequencies [eV] :
[...]
                       0.000000  0.000000  0.000000  0.000000  0.000000  0.000000
                       0.000000  0.000000  0.000000  0.000000  0.000000  0.000000
                       0.000000  0.000000  0.000000  0.000000  0.000000  0.000000
                       0.000000  0.000000  0.000000  0.000000  0.000000  0.000000
                       0.000000  0.000000  0.000000  0.000000  0.000000  0.000000
                       0.000000  0.000000  0.000000  0.000000  0.000000  0.000000
                       0.000000  0.000000  0.000000  0.000000  0.000000  0.000000
                       0.000000  0.000000  0.000000  0.000000  0.000000  0.000000
                       0.000000  0.000000  0.000000  0.000000  0.000000  0.000000
                       0.000000  0.000000  0.000000  0.000000  0.000000  0.000000
                       0.000000  0.000000  0.000000  0.000000  0.000000  0.000000
                       0.000000  0.000000  0.000000  0.000000  0.000000  0.000000
                       0.000000  0.000000  0.000000  0.000000  0.000000  0.000000
                       0.000000  0.000000  0.000000  0.000000  0.000000  0.000000
                       0.000000  0.000000  0.000000  0.000000  0.000000  0.000000
                       0.000000  0.000000  0.000000  0.000000  0.000000  0.000000
                       0.000000  0.000000  0.000000  0.000000  0.000000  0.000000
                       0.000000  0.000000  0.000000  0.000000  0.000000  0.000000
                       0.000000  0.000000  0.000000  0.000000  0.000000  0.000000
                       0.000000  0.000000  0.000000  0.000000  0.000000  0.000000
                       0.000000  0.000000  0.000000  0.000000  0.000000  0.000000
                       0.000000  0.000000  0.000000  0.000000  0.000000  0.000000
                       0.000000  0.000000  0.000000  0.000000  0.000000  0.000000
                       0.000000  0.000000  0.000000  0.000000  0.000000  0.000000
                       0.000000  0.000000  0.000000  0.000000  0.000000  0.000000
                       0.000000  0.000000  0.000000  0.000000  0.000000  0.000000
                       0.000000  0.000000  0.000000  0.000000  0.000000  0.000000
                       0.000000  0.000000  0.000000  0.000000  0.000000  0.000000
                       0.000000  0.000000  0.000000  0.000000  0.000000  0.000000
                       0.000000  0.000000  0.000000  0.000000  0.000000  0.000000
                       0.000000  0.000000  0.000000  0.000000  0.000000  0.000000
                       0.000000  0.000000  0.000000  0.000000  0.000000  0.000000
                       0.000000  0.000000  0.000000  0.000000  0.000000  0.000000
                       0.000000  0.000000  0.000000  0.000000  0.000000  0.000000
                       0.000000  0.000000  0.000000  0.000000  0.000000  0.000000
        optdriver3          3
        optdriver4          4
           ppmfrq3     6.13713734E-01 Hartree
           ppmfrq4     0.00000000E+00 Hartree
          spgroup          57
           strten3     0.0000000000E+00  0.0000000000E+00  0.0000000000E+00
                       0.0000000000E+00  0.0000000000E+00  0.0000000000E+00
           strten4     0.0000000000E+00  0.0000000000E+00  0.0000000000E+00
                       0.0000000000E+00  0.0000000000E+00  0.0000000000E+00
           symrel      1  0  0   0  1  0   0  0  1      -1  0  0   0 -1  0   0  0 -1
                      -1  0  0   0  1  0   0  0 -1       1  0  0   0 -1  0   0  0  1
                      -1  0  0   0 -1  0   0  0  1       1  0  0   0  1  0   0  0 -1
                       1  0  0   0 -1  0   0  0 -1      -1  0  0   0  1  0   0  0  1
            tnons      0.0000000  0.0000000  0.0000000    -0.0000000  0.0000000  0.0000000
                       0.5000000  0.5000000  0.0000000     0.5000000  0.5000000  0.0000000
                      -0.0000000  0.5000000  0.0000000     0.0000000  0.5000000  0.0000000
                       0.5000000  0.0000000  0.0000000     0.5000000  0.0000000  0.0000000
           toldfe      1.00000000E-08 Hartree
           tolsym      1.00000000E-04
            typat      1  1  1  1  1  1  1  1  1  1  1  1  1  1  1  1  1  1  1  1
                       1  1  1  1  1  1  1  1  1  1  1  1  2  2  2  2  2  2  2  2
          usekden           1
          vcutgeo      1.0000000  1.0000000  0.0000000
              wtk        0.02778    0.05556    0.05556    0.02778    0.05556    0.11111
                         0.11111    0.05556    0.05556    0.11111    0.11111    0.05556
                         0.02778    0.05556    0.05556    0.02778
           xangst      4.0200657419E+00  1.8285246137E+00  1.8189619946E+01
                       2.9250780542E-01  2.6687060456E+00  2.6810380054E+01
                       1.8637789682E+00  2.6687060456E+00  2.6810380054E+01
                       2.4487945791E+00  1.8285246137E+00  1.8189619946E+01
                       2.4487945791E+00  4.0771399433E+00  2.6810380054E+01
                       1.8637789682E+00  4.2009071597E-01  1.8189619946E+01
                       2.9250780542E-01  4.2009071597E-01  1.8189619946E+01
                       4.0200657419E+00  4.0771399433E+00  2.6810380054E+01
                       4.0448461619E+00  1.8749453844E+00  2.0620134630E+01
                       2.6772738547E-01  2.6222852749E+00  2.4379865370E+01
                       1.8885593882E+00  2.6222852749E+00  2.4379865370E+01
                       2.4240141592E+00  1.8749453844E+00  2.0620134630E+01
                       2.4240141592E+00  4.1235607140E+00  2.4379865370E+01
                       1.8885593882E+00  3.7366994524E-01  2.0620134630E+01
                       2.6772738547E-01  3.7366994524E-01  2.0620134630E+01
                       4.0448461619E+00  4.1235607140E+00  2.4379865370E+01
                       4.0437486753E+00  1.8735582678E+00  2.3126592582E+01
                       2.6882487204E-01  2.6236723915E+00  2.1873407418E+01
                       1.8874619016E+00  2.6236723915E+00  2.1873407418E+01
                       2.4251116458E+00  1.8735582678E+00  2.3126592582E+01
                       2.4251116458E+00  4.1221735974E+00  2.1873407418E+01
                       1.8874619016E+00  3.7505706185E-01  2.3126592582E+01
                       2.6882487204E-01  3.7505706185E-01  2.3126592582E+01
                       4.0437486753E+00  4.1221735974E+00  2.1873407418E+01
                       4.0359236766E+00  1.8573310566E+00  2.5635894280E+01
                       2.7664987080E-01  2.6398996027E+00  1.9364105720E+01
                       1.8796369028E+00  2.6398996027E+00  1.9364105720E+01
                       2.4329366445E+00  1.8573310566E+00  2.5635894280E+01
                       2.4329366445E+00  4.1059463862E+00  1.9364105720E+01
                       1.8796369028E+00  3.9128427303E-01  2.5635894280E+01
                       2.7664987080E-01  3.9128427303E-01  2.5635894280E+01
                       4.0359236766E+00  4.1059463862E+00  1.9364105720E+01
                       4.3134588900E+00  2.2175679753E+00  2.8048380942E+01
                      -8.8534263253E-04  2.2796626839E+00  1.6951619058E+01
                       2.1571721163E+00  2.2796626839E+00  1.6951619058E+01
                       2.1554014311E+00  2.2175679753E+00  2.8048380942E+01
                       2.1554014311E+00  4.4661833050E+00  1.6951619058E+01
                       2.1571721163E+00  3.1047354296E-02  2.8048380942E+01
                      -8.8534263253E-04  3.1047354296E-02  2.8048380942E+01
                       4.3134588900E+00  4.4661833050E+00  1.6951619058E+01
            xcart      7.5968232885E+00  3.4554107471E+00  3.4373400159E+01
                       5.5275964397E-01  5.0431235554E+00  5.0664275821E+01
                       3.5220318222E+00  5.0431235554E+00  5.0664275821E+01
                       4.6275511103E+00  3.4554107471E+00  3.4373400159E+01
                       4.6275511103E+00  7.7046778983E+00  5.0664275821E+01
                       3.5220318222E+00  7.9385640416E-01  3.4373400159E+01
                       5.5275964397E-01  7.9385640416E-01  3.4373400159E+01
                       7.5968232885E+00  7.7046778983E+00  5.0664275821E+01
                       7.6436514956E+00  3.5431332906E+00  3.8966407274E+01
                       5.0593143681E-01  4.9554010118E+00  4.6071268706E+01
                       3.5688600293E+00  4.9554010118E+00  4.6071268706E+01
                       4.5807229031E+00  3.5431332906E+00  3.8966407274E+01
                       4.5807229031E+00  7.7924004418E+00  4.6071268706E+01
                       3.5688600293E+00  7.0613386060E-01  3.8966407274E+01
                       5.0593143681E-01  7.0613386060E-01  3.8966407274E+01
                       7.6436514956E+00  7.7924004418E+00  4.6071268706E+01
                       7.6415775466E+00  3.5405120201E+00  4.3702926368E+01
                       5.0800538587E-01  4.9580222823E+00  4.1334749612E+01
                       3.5667860803E+00  4.9580222823E+00  4.1334749612E+01
                       4.5827968522E+00  3.5405120201E+00  4.3702926368E+01
                       4.5827968522E+00  7.7897791713E+00  4.1334749612E+01
                       3.5667860803E+00  7.0875513110E-01  4.3702926368E+01
                       5.0800538587E-01  7.0875513110E-01  4.3702926368E+01
                       7.6415775466E+00  7.7897791713E+00  4.1334749612E+01
                       7.6267904419E+00  3.5098470351E+00  4.8444819360E+01
                       5.2279249051E-01  4.9886872673E+00  3.6592856620E+01
                       3.5519989756E+00  4.9886872673E+00  3.6592856620E+01
                       4.5975839568E+00  3.5098470351E+00  4.8444819360E+01
                       4.5975839568E+00  7.7591141863E+00  3.6592856620E+01
                       3.5519989756E+00  7.3942011613E-01  4.8444819360E+01
                       5.2279249051E-01  7.3942011613E-01  4.8444819360E+01
                       7.6267904419E+00  7.7591141863E+00  3.6592856620E+01
                       8.1512559875E+00  4.1905961544E+00  5.3003758451E+01
                      -1.6730551093E-03  4.3079381480E+00  3.2033917529E+01
                       4.0764645212E+00  4.3079381480E+00  3.2033917529E+01
                       4.0731184112E+00  4.1905961544E+00  5.3003758451E+01
                       4.0731184112E+00  8.4398633056E+00  3.2033917529E+01
                       4.0764645212E+00  5.8670996771E-02  5.3003758451E+01
                      -1.6730551093E-03  5.8670996771E-02  5.3003758451E+01
                       8.1512559875E+00  8.4398633056E+00  3.2033917529E+01
             xred      9.3217325982E-01  4.0658902160E-01  4.0421377658E-01
                       6.7826740159E-02  5.9341097840E-01  5.9578622342E-01
                       4.3217325982E-01  5.9341097840E-01  5.9578622342E-01
                       5.6782674016E-01  4.0658902160E-01  4.0421377658E-01
                       5.6782674016E-01  9.0658902160E-01  5.9578622342E-01
                       4.3217325982E-01  9.3410978400E-02  4.0421377658E-01
                       6.7826740159E-02  9.3410978400E-02  4.0421377658E-01
                       9.3217325982E-01  9.0658902160E-01  5.9578622342E-01
                       9.3791934616E-01  4.1691110073E-01  4.5822521400E-01
                       6.2080653819E-02  5.8308889927E-01  5.4177478600E-01
                       4.3791934616E-01  5.8308889927E-01  5.4177478600E-01
                       5.6208065382E-01  4.1691110073E-01  4.5822521400E-01
                       5.6208065382E-01  9.1691110073E-01  5.4177478600E-01
                       4.3791934616E-01  8.3088899271E-02  4.5822521400E-01
                       6.2080653819E-02  8.3088899271E-02  4.5822521400E-01
                       9.3791934616E-01  9.1691110073E-01  5.4177478600E-01
                       9.3766486086E-01  4.1660266278E-01  5.1392427961E-01
                       6.2335139119E-02  5.8339733722E-01  4.8607572039E-01
                       4.3766486086E-01  5.8339733722E-01  4.8607572039E-01
                       5.6233513912E-01  4.1660266278E-01  5.1392427961E-01
                       5.6233513912E-01  9.1660266278E-01  4.8607572039E-01
                       4.3766486086E-01  8.3397337221E-02  5.1392427961E-01
                       6.2335139119E-02  8.3397337221E-02  5.1392427961E-01
                       9.3766486086E-01  9.1660266278E-01  4.8607572039E-01
                       9.3585039934E-01  4.1299439529E-01  5.6968653955E-01
                       6.4149600640E-02  5.8700560471E-01  4.3031346045E-01
                       4.3585039934E-01  5.8700560471E-01  4.3031346045E-01
                       5.6414960064E-01  4.1299439529E-01  5.6968653955E-01
                       5.6414960064E-01  9.1299439529E-01  4.3031346045E-01
                       4.3585039934E-01  8.7005604710E-02  5.6968653955E-01
                       6.4149600640E-02  8.7005604710E-02  5.6968653955E-01
                       9.3585039934E-01  9.1299439529E-01  4.3031346045E-01
                       1.0002052933E+00  4.9309633936E-01  6.2329735426E-01
                      -2.0529334115E-04  5.0690366064E-01  3.7670264574E-01
                       5.0020529332E-01  5.0690366064E-01  3.7670264574E-01
                       4.9979470666E-01  4.9309633936E-01  6.2329735426E-01
                       4.9979470666E-01  9.9309633936E-01  3.7670264574E-01
                       5.0020529332E-01  6.9036606412E-03  6.2329735426E-01
                      -2.0529334115E-04  6.9036606412E-03  6.2329735426E-01
                       1.0002052933E+00  9.9309633936E-01  3.7670264574E-01
            znucl        6.00000    9.00000

================================================================================
  

================================================================================

 Suggested references for the acknowledgment of ABINIT usage.

 The users of ABINIT have little formal obligations with respect to the ABINIT group
 (those specified in the GNU General Public License, http://www.gnu.org/copyleft/gpl.txt).
 However, it is common practice in the scientific literature,
 to acknowledge the efforts of people that have made the research possible.
 In this spirit, please find below suggested citations of work written by ABINIT developers,
 corresponding to implementations inside of ABINIT that you have used in the present run.
 Note also that it will be of great value to readers of publications presenting these results,
 to read papers enabling them to understand the theoretical formalism and details
 of the ABINIT implementation.
 For information on why they are suggested, see also https://docs.abinit.org/theory/acknowledgments.
-
- [1] Libxc: A library of exchange and correlation functionals for density functional theory.
- M.A.L. Marques, M.J.T. Oliveira, T. Burnus, Computer Physics Communications 183, 2227 (2012).
- Comment: to be cited when LibXC is used (negative value of ixc)
- Strong suggestion to cite this paper.
- DOI and bibtex: see https://docs.abinit.org/theory/bibliography/#marques2012
-
- [2] The Abinit project: Impact, environment and recent developments.
- Computer Phys. Comm. 248, 107042 (2020).
- X.Gonze, B. Amadon, G. Antonius, F.Arnardi, L.Baguet, J.-M.Beuken,
- J.Bieder, F.Bottin, J.Bouchet, E.Bousquet, N.Brouwer, F.Bruneval,
- G.Brunin, T.Cavignac, J.-B. Charraud, Wei Chen, M.Cote, S.Cottenier,
- J.Denier, G.Geneste, Ph.Ghosez, M.Giantomassi, Y.Gillet, O.Gingras,
- D.R.Hamann, G.Hautier, Xu He, N.Helbig, N.Holzwarth, Y.Jia, F.Jollet,
- W.Lafargue-Dit-Hauret, K.Lejaeghere, M.A.L.Marques, A.Martin, C.Martins,
- H.P.C. Miranda, F.Naccarato, K. Persson, G.Petretto, V.Planes, Y.Pouillon,
- S.Prokhorenko, F.Ricci, G.-M.Rignanese, A.H.Romero, M.M.Schmitt, M.Torrent,
- M.J.van Setten, B.Van Troeye, M.J.Verstraete, G.Zerah and J.W.Zwanzig
- Comment: the fifth generic paper describing the ABINIT project.
- Note that a version of this paper, that is not formatted for Computer Phys. Comm. 
- is available at https://www.abinit.org/sites/default/files/ABINIT20.pdf .
- The licence allows the authors to put it on the Web.
- DOI and bibtex: see https://docs.abinit.org/theory/bibliography/#gonze2020
-
- [3] ABINIT: Overview, and focus on selected capabilities
- J. Chem. Phys. 152, 124102 (2020).
- A. Romero, D.C. Allan, B. Amadon, G. Antonius, T. Applencourt, L.Baguet,
- J.Bieder, F.Bottin, J.Bouchet, E.Bousquet, F.Bruneval,
- G.Brunin, D.Caliste, M.Cote,
- J.Denier, C. Dreyer, Ph.Ghosez, M.Giantomassi, Y.Gillet, O.Gingras,
- D.R.Hamann, G.Hautier, F.Jollet, G. Jomard,
- A.Martin, 
- H.P.C. Miranda, F.Naccarato, G.Petretto, N.A. Pike, V.Planes,
- S.Prokhorenko, T. Rangel, F.Ricci, G.-M.Rignanese, M.Royo, M.Stengel, M.Torrent,
- M.J.van Setten, B.Van Troeye, M.J.Verstraete, J.Wiktor, J.W.Zwanziger, and X.Gonze.
- Comment: a global overview of ABINIT, with focus on selected capabilities .
- Note that a version of this paper, that is not formatted for J. Chem. Phys 
- is available at https://www.abinit.org/sites/default/files/ABINIT20_JPC.pdf .
- The licence allows the authors to put it on the Web.
- DOI and bibtex: see https://docs.abinit.org/theory/bibliography/#romero2020
-
- [4] Recent developments in the ABINIT software package.
- Computer Phys. Comm. 205, 106 (2016).
- X.Gonze, F.Jollet, F.Abreu Araujo, D.Adams, B.Amadon, T.Applencourt,
- C.Audouze, J.-M.Beuken, J.Bieder, A.Bokhanchuk, E.Bousquet, F.Bruneval
- D.Caliste, M.Cote, F.Dahm, F.Da Pieve, M.Delaveau, M.Di Gennaro,
- B.Dorado, C.Espejo, G.Geneste, L.Genovese, A.Gerossier, M.Giantomassi,
- Y.Gillet, D.R.Hamann, L.He, G.Jomard, J.Laflamme Janssen, S.Le Roux,
- A.Levitt, A.Lherbier, F.Liu, I.Lukacevic, A.Martin, C.Martins,
- M.J.T.Oliveira, S.Ponce, Y.Pouillon, T.Rangel, G.-M.Rignanese,
- A.H.Romero, B.Rousseau, O.Rubel, A.A.Shukri, M.Stankovski, M.Torrent,
- M.J.Van Setten, B.Van Troeye, M.J.Verstraete, D.Waroquier, J.Wiktor,
- B.Xu, A.Zhou, J.W.Zwanziger.
- Comment: the fourth generic paper describing the ABINIT project.
- Note that a version of this paper, that is not formatted for Computer Phys. Comm. 
- is available at https://www.abinit.org/sites/default/files/ABINIT16.pdf .
- The licence allows the authors to put it on the Web.
- DOI and bibtex: see https://docs.abinit.org/theory/bibliography/#gonze2016
-
- And optionally:
-
- [5] ABINIT: First-principles approach of materials and nanosystem properties.
- Computer Phys. Comm. 180, 2582-2615 (2009).
- X. Gonze, B. Amadon, P.-M. Anglade, J.-M. Beuken, F. Bottin, P. Boulanger, F. Bruneval,
- D. Caliste, R. Caracas, M. Cote, T. Deutsch, L. Genovese, Ph. Ghosez, M. Giantomassi
- S. Goedecker, D.R. Hamann, P. Hermet, F. Jollet, G. Jomard, S. Leroux, M. Mancini, S. Mazevet,
- M.J.T. Oliveira, G. Onida, Y. Pouillon, T. Rangel, G.-M. Rignanese, D. Sangalli, R. Shaltaf,
- M. Torrent, M.J. Verstraete, G. Zerah, J.W. Zwanziger
- Comment: the third generic paper describing the ABINIT project.
- Note that a version of this paper, that is not formatted for Computer Phys. Comm. 
- is available at https://www.abinit.org/sites/default/files/ABINIT_CPC_v10.pdf .
- The licence allows the authors to put it on the Web.
- DOI and bibtex: see https://docs.abinit.org/theory/bibliography/#gonze2009
 Proc.   0 individual time (sec): cpu=      68462.4  wall=      68572.2

 Calculation completed.
.Delivered   0 WARNINGs and   2 COMMENTs to log file.

--- !FinalSummary
program: abinit
version: 9.7.2
start_datetime: Tue Mar 22 22:46:27 2022
end_datetime: Wed Mar 23 17:49:19 2022
overall_cpu_time:     4387138.3
overall_wall_time:     4388618.3
exit_requested_by_user: no 
timelimit: 0
pseudos: 
    C   : c654b01b9d50d97c5308503e02772833
    F   : 5bd02824304ebaccac957f285162e15e
usepaw: 0
mpi_procs: 64
omp_threads: 1
num_warnings: 0
num_comments: 2
...
